V -t * -v 1.0a5 -a 0
A -t * -n 1 -p 0 -o 0x7fffffff -c 30 -a 1
A -t * -h 1 -m 1073741823 -s 0
n -t * -a 4 -s 4 -S UP -v circle -c black -i black
n -t * -a 0 -s 0 -S UP -v circle -c black -i black
n -t * -a 5 -s 5 -S UP -v circle -c black -i black
n -t * -a 1 -s 1 -S UP -v circle -c black -i black
n -t * -a 2 -s 2 -S UP -v circle -c black -i black
n -t * -a 3 -s 3 -S UP -v circle -c black -i black
l -t * -s 0 -d 1 -S UP -r 10000000 -D 0.01 -c black
l -t * -s 1 -d 2 -S UP -r 10000000 -D 0.01 -c black
l -t * -s 2 -d 3 -S UP -r 10000000 -D 0.01 -c black
l -t * -s 3 -d 4 -S UP -r 10000000 -D 0.01 -c black
l -t * -s 4 -d 5 -S UP -r 10000000 -D 0.01 -c black
l -t * -s 5 -d 0 -S UP -r 10000000 -D 0.01 -c black
+ -t 0.000169788487334637 -s 0 -d 1 -p rtProtoDV -e 6 -c 0 -i 0 -a 0 -x {0.2 1.1 -1 ------- null}
- -t 0.000169788487334637 -s 0 -d 1 -p rtProtoDV -e 6 -c 0 -i 0 -a 0 -x {0.2 1.1 -1 ------- null}
h -t 0.000169788487334637 -s 0 -d 1 -p rtProtoDV -e 6 -c 0 -i 0 -a 0 -x {0.2 1.1 -1 ------- null}
+ -t 0.000169788487334637 -s 0 -d 5 -p rtProtoDV -e 6 -c 0 -i 1 -a 0 -x {0.2 5.1 -1 ------- null}
- -t 0.000169788487334637 -s 0 -d 5 -p rtProtoDV -e 6 -c 0 -i 1 -a 0 -x {0.2 5.1 -1 ------- null}
h -t 0.000169788487334637 -s 0 -d 5 -p rtProtoDV -e 6 -c 0 -i 1 -a 0 -x {0.2 5.1 -1 ------- null}
+ -t 0.00710233021858257 -s 2 -d 1 -p rtProtoDV -e 6 -c 0 -i 2 -a 0 -x {2.2 1.1 -1 ------- null}
- -t 0.00710233021858257 -s 2 -d 1 -p rtProtoDV -e 6 -c 0 -i 2 -a 0 -x {2.2 1.1 -1 ------- null}
h -t 0.00710233021858257 -s 2 -d 1 -p rtProtoDV -e 6 -c 0 -i 2 -a 0 -x {2.2 1.1 -1 ------- null}
+ -t 0.00710233021858257 -s 2 -d 3 -p rtProtoDV -e 6 -c 0 -i 3 -a 0 -x {2.2 3.1 -1 ------- null}
- -t 0.00710233021858257 -s 2 -d 3 -p rtProtoDV -e 6 -c 0 -i 3 -a 0 -x {2.2 3.1 -1 ------- null}
h -t 0.00710233021858257 -s 2 -d 3 -p rtProtoDV -e 6 -c 0 -i 3 -a 0 -x {2.2 3.1 -1 ------- null}
r -t 0.0101745884873346 -s 0 -d 1 -p rtProtoDV -e 6 -c 0 -i 0 -a 0 -x {0.2 1.1 -1 ------- null}
+ -t 0.0101745884873346 -s 1 -d 0 -p rtProtoDV -e 6 -c 0 -i 4 -a 0 -x {1.1 0.2 -1 ------- null}
- -t 0.0101745884873346 -s 1 -d 0 -p rtProtoDV -e 6 -c 0 -i 4 -a 0 -x {1.1 0.2 -1 ------- null}
h -t 0.0101745884873346 -s 1 -d 0 -p rtProtoDV -e 6 -c 0 -i 4 -a 0 -x {1.1 0.2 -1 ------- null}
+ -t 0.0101745884873346 -s 1 -d 2 -p rtProtoDV -e 6 -c 0 -i 5 -a 0 -x {1.1 2.2 -1 ------- null}
- -t 0.0101745884873346 -s 1 -d 2 -p rtProtoDV -e 6 -c 0 -i 5 -a 0 -x {1.1 2.2 -1 ------- null}
h -t 0.0101745884873346 -s 1 -d 2 -p rtProtoDV -e 6 -c 0 -i 5 -a 0 -x {1.1 2.2 -1 ------- null}
r -t 0.0101745884873346 -s 0 -d 5 -p rtProtoDV -e 6 -c 0 -i 1 -a 0 -x {0.2 5.1 -1 ------- null}
+ -t 0.0101745884873346 -s 5 -d 0 -p rtProtoDV -e 6 -c 0 -i 6 -a 0 -x {5.1 0.2 -1 ------- null}
- -t 0.0101745884873346 -s 5 -d 0 -p rtProtoDV -e 6 -c 0 -i 6 -a 0 -x {5.1 0.2 -1 ------- null}
h -t 0.0101745884873346 -s 5 -d 0 -p rtProtoDV -e 6 -c 0 -i 6 -a 0 -x {5.1 0.2 -1 ------- null}
+ -t 0.0101745884873346 -s 5 -d 4 -p rtProtoDV -e 6 -c 0 -i 7 -a 0 -x {5.1 4.1 -1 ------- null}
- -t 0.0101745884873346 -s 5 -d 4 -p rtProtoDV -e 6 -c 0 -i 7 -a 0 -x {5.1 4.1 -1 ------- null}
h -t 0.0101745884873346 -s 5 -d 4 -p rtProtoDV -e 6 -c 0 -i 7 -a 0 -x {5.1 4.1 -1 ------- null}
r -t 0.0171071302185826 -s 2 -d 1 -p rtProtoDV -e 6 -c 0 -i 2 -a 0 -x {2.2 1.1 -1 ------- null}
+ -t 0.0171071302185826 -s 1 -d 0 -p rtProtoDV -e 6 -c 0 -i 8 -a 0 -x {1.1 0.2 -1 ------- null}
- -t 0.0171071302185826 -s 1 -d 0 -p rtProtoDV -e 6 -c 0 -i 8 -a 0 -x {1.1 0.2 -1 ------- null}
h -t 0.0171071302185826 -s 1 -d 0 -p rtProtoDV -e 6 -c 0 -i 8 -a 0 -x {1.1 0.2 -1 ------- null}
+ -t 0.0171071302185826 -s 1 -d 2 -p rtProtoDV -e 6 -c 0 -i 9 -a 0 -x {1.1 2.2 -1 ------- null}
- -t 0.0171071302185826 -s 1 -d 2 -p rtProtoDV -e 6 -c 0 -i 9 -a 0 -x {1.1 2.2 -1 ------- null}
h -t 0.0171071302185826 -s 1 -d 2 -p rtProtoDV -e 6 -c 0 -i 9 -a 0 -x {1.1 2.2 -1 ------- null}
r -t 0.0171071302185826 -s 2 -d 3 -p rtProtoDV -e 6 -c 0 -i 3 -a 0 -x {2.2 3.1 -1 ------- null}
+ -t 0.0171071302185826 -s 3 -d 2 -p rtProtoDV -e 6 -c 0 -i 10 -a 0 -x {3.1 2.2 -1 ------- null}
- -t 0.0171071302185826 -s 3 -d 2 -p rtProtoDV -e 6 -c 0 -i 10 -a 0 -x {3.1 2.2 -1 ------- null}
h -t 0.0171071302185826 -s 3 -d 2 -p rtProtoDV -e 6 -c 0 -i 10 -a 0 -x {3.1 2.2 -1 ------- null}
+ -t 0.0171071302185826 -s 3 -d 4 -p rtProtoDV -e 6 -c 0 -i 11 -a 0 -x {3.1 4.1 -1 ------- null}
- -t 0.0171071302185826 -s 3 -d 4 -p rtProtoDV -e 6 -c 0 -i 11 -a 0 -x {3.1 4.1 -1 ------- null}
h -t 0.0171071302185826 -s 3 -d 4 -p rtProtoDV -e 6 -c 0 -i 11 -a 0 -x {3.1 4.1 -1 ------- null}
r -t 0.0201793884873346 -s 1 -d 0 -p rtProtoDV -e 6 -c 0 -i 4 -a 0 -x {1.1 0.2 -1 ------- null}
+ -t 0.0201793884873346 -s 0 -d 1 -p rtProtoDV -e 6 -c 0 -i 12 -a 0 -x {0.2 1.1 -1 ------- null}
- -t 0.0201793884873346 -s 0 -d 1 -p rtProtoDV -e 6 -c 0 -i 12 -a 0 -x {0.2 1.1 -1 ------- null}
h -t 0.0201793884873346 -s 0 -d 1 -p rtProtoDV -e 6 -c 0 -i 12 -a 0 -x {0.2 1.1 -1 ------- null}
+ -t 0.0201793884873346 -s 0 -d 5 -p rtProtoDV -e 6 -c 0 -i 13 -a 0 -x {0.2 5.1 -1 ------- null}
- -t 0.0201793884873346 -s 0 -d 5 -p rtProtoDV -e 6 -c 0 -i 13 -a 0 -x {0.2 5.1 -1 ------- null}
h -t 0.0201793884873346 -s 0 -d 5 -p rtProtoDV -e 6 -c 0 -i 13 -a 0 -x {0.2 5.1 -1 ------- null}
r -t 0.0201793884873346 -s 1 -d 2 -p rtProtoDV -e 6 -c 0 -i 5 -a 0 -x {1.1 2.2 -1 ------- null}
+ -t 0.0201793884873346 -s 2 -d 1 -p rtProtoDV -e 6 -c 0 -i 14 -a 0 -x {2.2 1.1 -1 ------- null}
- -t 0.0201793884873346 -s 2 -d 1 -p rtProtoDV -e 6 -c 0 -i 14 -a 0 -x {2.2 1.1 -1 ------- null}
h -t 0.0201793884873346 -s 2 -d 1 -p rtProtoDV -e 6 -c 0 -i 14 -a 0 -x {2.2 1.1 -1 ------- null}
+ -t 0.0201793884873346 -s 2 -d 3 -p rtProtoDV -e 6 -c 0 -i 15 -a 0 -x {2.2 3.1 -1 ------- null}
- -t 0.0201793884873346 -s 2 -d 3 -p rtProtoDV -e 6 -c 0 -i 15 -a 0 -x {2.2 3.1 -1 ------- null}
h -t 0.0201793884873346 -s 2 -d 3 -p rtProtoDV -e 6 -c 0 -i 15 -a 0 -x {2.2 3.1 -1 ------- null}
r -t 0.0201793884873346 -s 5 -d 0 -p rtProtoDV -e 6 -c 0 -i 6 -a 0 -x {5.1 0.2 -1 ------- null}
+ -t 0.0201793884873346 -s 0 -d 1 -p rtProtoDV -e 6 -c 0 -i 16 -a 0 -x {0.2 1.1 -1 ------- null}
+ -t 0.0201793884873346 -s 0 -d 5 -p rtProtoDV -e 6 -c 0 -i 17 -a 0 -x {0.2 5.1 -1 ------- null}
r -t 0.0201793884873346 -s 5 -d 4 -p rtProtoDV -e 6 -c 0 -i 7 -a 0 -x {5.1 4.1 -1 ------- null}
+ -t 0.0201793884873346 -s 4 -d 3 -p rtProtoDV -e 6 -c 0 -i 18 -a 0 -x {4.1 3.1 -1 ------- null}
- -t 0.0201793884873346 -s 4 -d 3 -p rtProtoDV -e 6 -c 0 -i 18 -a 0 -x {4.1 3.1 -1 ------- null}
h -t 0.0201793884873346 -s 4 -d 3 -p rtProtoDV -e 6 -c 0 -i 18 -a 0 -x {4.1 3.1 -1 ------- null}
+ -t 0.0201793884873346 -s 4 -d 5 -p rtProtoDV -e 6 -c 0 -i 19 -a 0 -x {4.1 5.1 -1 ------- null}
- -t 0.0201793884873346 -s 4 -d 5 -p rtProtoDV -e 6 -c 0 -i 19 -a 0 -x {4.1 5.1 -1 ------- null}
h -t 0.0201793884873346 -s 4 -d 5 -p rtProtoDV -e 6 -c 0 -i 19 -a 0 -x {4.1 5.1 -1 ------- null}
- -t 0.0201841884873346 -s 0 -d 1 -p rtProtoDV -e 6 -c 0 -i 16 -a 0 -x {0.2 1.1 -1 ------- null}
h -t 0.0201841884873346 -s 0 -d 1 -p rtProtoDV -e 6 -c 0 -i 16 -a 0 -x {0.2 1.1 -1 ------- null}
- -t 0.0201841884873346 -s 0 -d 5 -p rtProtoDV -e 6 -c 0 -i 17 -a 0 -x {0.2 5.1 -1 ------- null}
h -t 0.0201841884873346 -s 0 -d 5 -p rtProtoDV -e 6 -c 0 -i 17 -a 0 -x {0.2 5.1 -1 ------- null}
r -t 0.0271119302185826 -s 1 -d 0 -p rtProtoDV -e 6 -c 0 -i 8 -a 0 -x {1.1 0.2 -1 ------- null}
+ -t 0.0271119302185826 -s 0 -d 1 -p rtProtoDV -e 6 -c 0 -i 20 -a 0 -x {0.2 1.1 -1 ------- null}
- -t 0.0271119302185826 -s 0 -d 1 -p rtProtoDV -e 6 -c 0 -i 20 -a 0 -x {0.2 1.1 -1 ------- null}
h -t 0.0271119302185826 -s 0 -d 1 -p rtProtoDV -e 6 -c 0 -i 20 -a 0 -x {0.2 1.1 -1 ------- null}
+ -t 0.0271119302185826 -s 0 -d 5 -p rtProtoDV -e 6 -c 0 -i 21 -a 0 -x {0.2 5.1 -1 ------- null}
- -t 0.0271119302185826 -s 0 -d 5 -p rtProtoDV -e 6 -c 0 -i 21 -a 0 -x {0.2 5.1 -1 ------- null}
h -t 0.0271119302185826 -s 0 -d 5 -p rtProtoDV -e 6 -c 0 -i 21 -a 0 -x {0.2 5.1 -1 ------- null}
r -t 0.0271119302185826 -s 1 -d 2 -p rtProtoDV -e 6 -c 0 -i 9 -a 0 -x {1.1 2.2 -1 ------- null}
r -t 0.0271119302185826 -s 3 -d 2 -p rtProtoDV -e 6 -c 0 -i 10 -a 0 -x {3.1 2.2 -1 ------- null}
+ -t 0.0271119302185826 -s 2 -d 1 -p rtProtoDV -e 6 -c 0 -i 22 -a 0 -x {2.2 1.1 -1 ------- null}
- -t 0.0271119302185826 -s 2 -d 1 -p rtProtoDV -e 6 -c 0 -i 22 -a 0 -x {2.2 1.1 -1 ------- null}
h -t 0.0271119302185826 -s 2 -d 1 -p rtProtoDV -e 6 -c 0 -i 22 -a 0 -x {2.2 1.1 -1 ------- null}
+ -t 0.0271119302185826 -s 2 -d 3 -p rtProtoDV -e 6 -c 0 -i 23 -a 0 -x {2.2 3.1 -1 ------- null}
- -t 0.0271119302185826 -s 2 -d 3 -p rtProtoDV -e 6 -c 0 -i 23 -a 0 -x {2.2 3.1 -1 ------- null}
h -t 0.0271119302185826 -s 2 -d 3 -p rtProtoDV -e 6 -c 0 -i 23 -a 0 -x {2.2 3.1 -1 ------- null}
r -t 0.0271119302185826 -s 3 -d 4 -p rtProtoDV -e 6 -c 0 -i 11 -a 0 -x {3.1 4.1 -1 ------- null}
+ -t 0.0271119302185826 -s 4 -d 3 -p rtProtoDV -e 6 -c 0 -i 24 -a 0 -x {4.1 3.1 -1 ------- null}
- -t 0.0271119302185826 -s 4 -d 3 -p rtProtoDV -e 6 -c 0 -i 24 -a 0 -x {4.1 3.1 -1 ------- null}
h -t 0.0271119302185826 -s 4 -d 3 -p rtProtoDV -e 6 -c 0 -i 24 -a 0 -x {4.1 3.1 -1 ------- null}
+ -t 0.0271119302185826 -s 4 -d 5 -p rtProtoDV -e 6 -c 0 -i 25 -a 0 -x {4.1 5.1 -1 ------- null}
- -t 0.0271119302185826 -s 4 -d 5 -p rtProtoDV -e 6 -c 0 -i 25 -a 0 -x {4.1 5.1 -1 ------- null}
h -t 0.0271119302185826 -s 4 -d 5 -p rtProtoDV -e 6 -c 0 -i 25 -a 0 -x {4.1 5.1 -1 ------- null}
r -t 0.0301841884873346 -s 0 -d 1 -p rtProtoDV -e 6 -c 0 -i 12 -a 0 -x {0.2 1.1 -1 ------- null}
r -t 0.0301841884873346 -s 0 -d 5 -p rtProtoDV -e 6 -c 0 -i 13 -a 0 -x {0.2 5.1 -1 ------- null}
+ -t 0.0301841884873346 -s 5 -d 0 -p rtProtoDV -e 6 -c 0 -i 26 -a 0 -x {5.1 0.2 -1 ------- null}
- -t 0.0301841884873346 -s 5 -d 0 -p rtProtoDV -e 6 -c 0 -i 26 -a 0 -x {5.1 0.2 -1 ------- null}
h -t 0.0301841884873346 -s 5 -d 0 -p rtProtoDV -e 6 -c 0 -i 26 -a 0 -x {5.1 0.2 -1 ------- null}
+ -t 0.0301841884873346 -s 5 -d 4 -p rtProtoDV -e 6 -c 0 -i 27 -a 0 -x {5.1 4.1 -1 ------- null}
- -t 0.0301841884873346 -s 5 -d 4 -p rtProtoDV -e 6 -c 0 -i 27 -a 0 -x {5.1 4.1 -1 ------- null}
h -t 0.0301841884873346 -s 5 -d 4 -p rtProtoDV -e 6 -c 0 -i 27 -a 0 -x {5.1 4.1 -1 ------- null}
r -t 0.0301841884873346 -s 2 -d 1 -p rtProtoDV -e 6 -c 0 -i 14 -a 0 -x {2.2 1.1 -1 ------- null}
r -t 0.0301841884873346 -s 2 -d 3 -p rtProtoDV -e 6 -c 0 -i 15 -a 0 -x {2.2 3.1 -1 ------- null}
+ -t 0.0301841884873346 -s 3 -d 2 -p rtProtoDV -e 6 -c 0 -i 28 -a 0 -x {3.1 2.2 -1 ------- null}
- -t 0.0301841884873346 -s 3 -d 2 -p rtProtoDV -e 6 -c 0 -i 28 -a 0 -x {3.1 2.2 -1 ------- null}
h -t 0.0301841884873346 -s 3 -d 2 -p rtProtoDV -e 6 -c 0 -i 28 -a 0 -x {3.1 2.2 -1 ------- null}
+ -t 0.0301841884873346 -s 3 -d 4 -p rtProtoDV -e 6 -c 0 -i 29 -a 0 -x {3.1 4.1 -1 ------- null}
- -t 0.0301841884873346 -s 3 -d 4 -p rtProtoDV -e 6 -c 0 -i 29 -a 0 -x {3.1 4.1 -1 ------- null}
h -t 0.0301841884873346 -s 3 -d 4 -p rtProtoDV -e 6 -c 0 -i 29 -a 0 -x {3.1 4.1 -1 ------- null}
r -t 0.0301841884873346 -s 4 -d 3 -p rtProtoDV -e 6 -c 0 -i 18 -a 0 -x {4.1 3.1 -1 ------- null}
+ -t 0.0301841884873346 -s 3 -d 2 -p rtProtoDV -e 6 -c 0 -i 30 -a 0 -x {3.1 2.2 -1 ------- null}
+ -t 0.0301841884873346 -s 3 -d 4 -p rtProtoDV -e 6 -c 0 -i 31 -a 0 -x {3.1 4.1 -1 ------- null}
r -t 0.0301841884873346 -s 4 -d 5 -p rtProtoDV -e 6 -c 0 -i 19 -a 0 -x {4.1 5.1 -1 ------- null}
+ -t 0.0301841884873346 -s 5 -d 0 -p rtProtoDV -e 6 -c 0 -i 32 -a 0 -x {5.1 0.2 -1 ------- null}
+ -t 0.0301841884873346 -s 5 -d 4 -p rtProtoDV -e 6 -c 0 -i 33 -a 0 -x {5.1 4.1 -1 ------- null}
r -t 0.0301889884873346 -s 0 -d 1 -p rtProtoDV -e 6 -c 0 -i 16 -a 0 -x {0.2 1.1 -1 ------- null}
+ -t 0.0301889884873346 -s 1 -d 0 -p rtProtoDV -e 6 -c 0 -i 34 -a 0 -x {1.1 0.2 -1 ------- null}
- -t 0.0301889884873346 -s 1 -d 0 -p rtProtoDV -e 6 -c 0 -i 34 -a 0 -x {1.1 0.2 -1 ------- null}
h -t 0.0301889884873346 -s 1 -d 0 -p rtProtoDV -e 6 -c 0 -i 34 -a 0 -x {1.1 0.2 -1 ------- null}
+ -t 0.0301889884873346 -s 1 -d 2 -p rtProtoDV -e 6 -c 0 -i 35 -a 0 -x {1.1 2.2 -1 ------- null}
- -t 0.0301889884873346 -s 1 -d 2 -p rtProtoDV -e 6 -c 0 -i 35 -a 0 -x {1.1 2.2 -1 ------- null}
h -t 0.0301889884873346 -s 1 -d 2 -p rtProtoDV -e 6 -c 0 -i 35 -a 0 -x {1.1 2.2 -1 ------- null}
r -t 0.0301889884873346 -s 0 -d 5 -p rtProtoDV -e 6 -c 0 -i 17 -a 0 -x {0.2 5.1 -1 ------- null}
- -t 0.0301889884873346 -s 5 -d 0 -p rtProtoDV -e 6 -c 0 -i 32 -a 0 -x {5.1 0.2 -1 ------- null}
h -t 0.0301889884873346 -s 5 -d 0 -p rtProtoDV -e 6 -c 0 -i 32 -a 0 -x {5.1 0.2 -1 ------- null}
- -t 0.0301889884873346 -s 5 -d 4 -p rtProtoDV -e 6 -c 0 -i 33 -a 0 -x {5.1 4.1 -1 ------- null}
h -t 0.0301889884873346 -s 5 -d 4 -p rtProtoDV -e 6 -c 0 -i 33 -a 0 -x {5.1 4.1 -1 ------- null}
- -t 0.0301889884873346 -s 3 -d 2 -p rtProtoDV -e 6 -c 0 -i 30 -a 0 -x {3.1 2.2 -1 ------- null}
h -t 0.0301889884873346 -s 3 -d 2 -p rtProtoDV -e 6 -c 0 -i 30 -a 0 -x {3.1 2.2 -1 ------- null}
- -t 0.0301889884873346 -s 3 -d 4 -p rtProtoDV -e 6 -c 0 -i 31 -a 0 -x {3.1 4.1 -1 ------- null}
h -t 0.0301889884873346 -s 3 -d 4 -p rtProtoDV -e 6 -c 0 -i 31 -a 0 -x {3.1 4.1 -1 ------- null}
r -t 0.0371167302185826 -s 0 -d 1 -p rtProtoDV -e 6 -c 0 -i 20 -a 0 -x {0.2 1.1 -1 ------- null}
r -t 0.0371167302185826 -s 0 -d 5 -p rtProtoDV -e 6 -c 0 -i 21 -a 0 -x {0.2 5.1 -1 ------- null}
r -t 0.0371167302185826 -s 2 -d 1 -p rtProtoDV -e 6 -c 0 -i 22 -a 0 -x {2.2 1.1 -1 ------- null}
r -t 0.0371167302185826 -s 2 -d 3 -p rtProtoDV -e 6 -c 0 -i 23 -a 0 -x {2.2 3.1 -1 ------- null}
r -t 0.0371167302185826 -s 4 -d 3 -p rtProtoDV -e 6 -c 0 -i 24 -a 0 -x {4.1 3.1 -1 ------- null}
r -t 0.0371167302185826 -s 4 -d 5 -p rtProtoDV -e 6 -c 0 -i 25 -a 0 -x {4.1 5.1 -1 ------- null}
r -t 0.0401889884873346 -s 5 -d 0 -p rtProtoDV -e 6 -c 0 -i 26 -a 0 -x {5.1 0.2 -1 ------- null}
r -t 0.0401889884873346 -s 5 -d 4 -p rtProtoDV -e 6 -c 0 -i 27 -a 0 -x {5.1 4.1 -1 ------- null}
r -t 0.0401889884873346 -s 3 -d 2 -p rtProtoDV -e 6 -c 0 -i 28 -a 0 -x {3.1 2.2 -1 ------- null}
r -t 0.0401889884873346 -s 3 -d 4 -p rtProtoDV -e 6 -c 0 -i 29 -a 0 -x {3.1 4.1 -1 ------- null}
r -t 0.0401937884873346 -s 1 -d 0 -p rtProtoDV -e 6 -c 0 -i 34 -a 0 -x {1.1 0.2 -1 ------- null}
r -t 0.0401937884873346 -s 1 -d 2 -p rtProtoDV -e 6 -c 0 -i 35 -a 0 -x {1.1 2.2 -1 ------- null}
r -t 0.0401937884873346 -s 5 -d 0 -p rtProtoDV -e 6 -c 0 -i 32 -a 0 -x {5.1 0.2 -1 ------- null}
r -t 0.0401937884873346 -s 5 -d 4 -p rtProtoDV -e 6 -c 0 -i 33 -a 0 -x {5.1 4.1 -1 ------- null}
r -t 0.0401937884873346 -s 3 -d 2 -p rtProtoDV -e 6 -c 0 -i 30 -a 0 -x {3.1 2.2 -1 ------- null}
r -t 0.0401937884873346 -s 3 -d 4 -p rtProtoDV -e 6 -c 0 -i 31 -a 0 -x {3.1 4.1 -1 ------- null}
+ -t 0.04406133552271 -s 3 -d 2 -p rtProtoDV -e 6 -c 0 -i 36 -a 0 -x {3.1 2.2 -1 ------- null}
- -t 0.04406133552271 -s 3 -d 2 -p rtProtoDV -e 6 -c 0 -i 36 -a 0 -x {3.1 2.2 -1 ------- null}
h -t 0.04406133552271 -s 3 -d 2 -p rtProtoDV -e 6 -c 0 -i 36 -a 0 -x {3.1 2.2 -1 ------- null}
+ -t 0.04406133552271 -s 3 -d 4 -p rtProtoDV -e 6 -c 0 -i 37 -a 0 -x {3.1 4.1 -1 ------- null}
- -t 0.04406133552271 -s 3 -d 4 -p rtProtoDV -e 6 -c 0 -i 37 -a 0 -x {3.1 4.1 -1 ------- null}
h -t 0.04406133552271 -s 3 -d 4 -p rtProtoDV -e 6 -c 0 -i 37 -a 0 -x {3.1 4.1 -1 ------- null}
r -t 0.05406613552271 -s 3 -d 2 -p rtProtoDV -e 6 -c 0 -i 36 -a 0 -x {3.1 2.2 -1 ------- null}
r -t 0.05406613552271 -s 3 -d 4 -p rtProtoDV -e 6 -c 0 -i 37 -a 0 -x {3.1 4.1 -1 ------- null}
+ -t 0.1 -s 2 -d 1 -p cbr -e 1000 -c 0 -i 38 -a 0 -x {2.0 0.0 0 ------- null}
- -t 0.1 -s 2 -d 1 -p cbr -e 1000 -c 0 -i 38 -a 0 -x {2.0 0.0 0 ------- null}
h -t 0.1 -s 2 -d 1 -p cbr -e 1000 -c 0 -i 38 -a 0 -x {2.0 0.0 -1 ------- null}
r -t 0.1108 -s 2 -d 1 -p cbr -e 1000 -c 0 -i 38 -a 0 -x {2.0 0.0 0 ------- null}
+ -t 0.1108 -s 1 -d 0 -p cbr -e 1000 -c 0 -i 38 -a 0 -x {2.0 0.0 0 ------- null}
- -t 0.1108 -s 1 -d 0 -p cbr -e 1000 -c 0 -i 38 -a 0 -x {2.0 0.0 0 ------- null}
h -t 0.1108 -s 1 -d 0 -p cbr -e 1000 -c 0 -i 38 -a 0 -x {2.0 0.0 -1 ------- null}
+ -t 0.117857142857143 -s 2 -d 1 -p cbr -e 1000 -c 0 -i 39 -a 0 -x {2.0 0.0 1 ------- null}
- -t 0.117857142857143 -s 2 -d 1 -p cbr -e 1000 -c 0 -i 39 -a 0 -x {2.0 0.0 1 ------- null}
h -t 0.117857142857143 -s 2 -d 1 -p cbr -e 1000 -c 0 -i 39 -a 0 -x {2.0 0.0 -1 ------- null}
r -t 0.1216 -s 1 -d 0 -p cbr -e 1000 -c 0 -i 38 -a 0 -x {2.0 0.0 0 ------- null}
r -t 0.128657142857143 -s 2 -d 1 -p cbr -e 1000 -c 0 -i 39 -a 0 -x {2.0 0.0 1 ------- null}
+ -t 0.128657142857143 -s 1 -d 0 -p cbr -e 1000 -c 0 -i 39 -a 0 -x {2.0 0.0 1 ------- null}
- -t 0.128657142857143 -s 1 -d 0 -p cbr -e 1000 -c 0 -i 39 -a 0 -x {2.0 0.0 1 ------- null}
h -t 0.128657142857143 -s 1 -d 0 -p cbr -e 1000 -c 0 -i 39 -a 0 -x {2.0 0.0 -1 ------- null}
+ -t 0.135714285714286 -s 2 -d 1 -p cbr -e 1000 -c 0 -i 40 -a 0 -x {2.0 0.0 2 ------- null}
- -t 0.135714285714286 -s 2 -d 1 -p cbr -e 1000 -c 0 -i 40 -a 0 -x {2.0 0.0 2 ------- null}
h -t 0.135714285714286 -s 2 -d 1 -p cbr -e 1000 -c 0 -i 40 -a 0 -x {2.0 0.0 -1 ------- null}
r -t 0.139457142857143 -s 1 -d 0 -p cbr -e 1000 -c 0 -i 39 -a 0 -x {2.0 0.0 1 ------- null}
r -t 0.146514285714286 -s 2 -d 1 -p cbr -e 1000 -c 0 -i 40 -a 0 -x {2.0 0.0 2 ------- null}
+ -t 0.146514285714286 -s 1 -d 0 -p cbr -e 1000 -c 0 -i 40 -a 0 -x {2.0 0.0 2 ------- null}
- -t 0.146514285714286 -s 1 -d 0 -p cbr -e 1000 -c 0 -i 40 -a 0 -x {2.0 0.0 2 ------- null}
h -t 0.146514285714286 -s 1 -d 0 -p cbr -e 1000 -c 0 -i 40 -a 0 -x {2.0 0.0 -1 ------- null}
+ -t 0.153571428571429 -s 2 -d 1 -p cbr -e 1000 -c 0 -i 41 -a 0 -x {2.0 0.0 3 ------- null}
- -t 0.153571428571429 -s 2 -d 1 -p cbr -e 1000 -c 0 -i 41 -a 0 -x {2.0 0.0 3 ------- null}
h -t 0.153571428571429 -s 2 -d 1 -p cbr -e 1000 -c 0 -i 41 -a 0 -x {2.0 0.0 -1 ------- null}
r -t 0.157314285714286 -s 1 -d 0 -p cbr -e 1000 -c 0 -i 40 -a 0 -x {2.0 0.0 2 ------- null}
r -t 0.164371428571429 -s 2 -d 1 -p cbr -e 1000 -c 0 -i 41 -a 0 -x {2.0 0.0 3 ------- null}
+ -t 0.164371428571429 -s 1 -d 0 -p cbr -e 1000 -c 0 -i 41 -a 0 -x {2.0 0.0 3 ------- null}
- -t 0.164371428571429 -s 1 -d 0 -p cbr -e 1000 -c 0 -i 41 -a 0 -x {2.0 0.0 3 ------- null}
h -t 0.164371428571429 -s 1 -d 0 -p cbr -e 1000 -c 0 -i 41 -a 0 -x {2.0 0.0 -1 ------- null}
+ -t 0.171428571428571 -s 2 -d 1 -p cbr -e 1000 -c 0 -i 42 -a 0 -x {2.0 0.0 4 ------- null}
- -t 0.171428571428571 -s 2 -d 1 -p cbr -e 1000 -c 0 -i 42 -a 0 -x {2.0 0.0 4 ------- null}
h -t 0.171428571428571 -s 2 -d 1 -p cbr -e 1000 -c 0 -i 42 -a 0 -x {2.0 0.0 -1 ------- null}
r -t 0.175171428571429 -s 1 -d 0 -p cbr -e 1000 -c 0 -i 41 -a 0 -x {2.0 0.0 3 ------- null}
r -t 0.182228571428571 -s 2 -d 1 -p cbr -e 1000 -c 0 -i 42 -a 0 -x {2.0 0.0 4 ------- null}
+ -t 0.182228571428571 -s 1 -d 0 -p cbr -e 1000 -c 0 -i 42 -a 0 -x {2.0 0.0 4 ------- null}
- -t 0.182228571428571 -s 1 -d 0 -p cbr -e 1000 -c 0 -i 42 -a 0 -x {2.0 0.0 4 ------- null}
h -t 0.182228571428571 -s 1 -d 0 -p cbr -e 1000 -c 0 -i 42 -a 0 -x {2.0 0.0 -1 ------- null}
+ -t 0.189285714285714 -s 2 -d 1 -p cbr -e 1000 -c 0 -i 43 -a 0 -x {2.0 0.0 5 ------- null}
- -t 0.189285714285714 -s 2 -d 1 -p cbr -e 1000 -c 0 -i 43 -a 0 -x {2.0 0.0 5 ------- null}
h -t 0.189285714285714 -s 2 -d 1 -p cbr -e 1000 -c 0 -i 43 -a 0 -x {2.0 0.0 -1 ------- null}
r -t 0.193028571428571 -s 1 -d 0 -p cbr -e 1000 -c 0 -i 42 -a 0 -x {2.0 0.0 4 ------- null}
r -t 0.200085714285714 -s 2 -d 1 -p cbr -e 1000 -c 0 -i 43 -a 0 -x {2.0 0.0 5 ------- null}
+ -t 0.200085714285714 -s 1 -d 0 -p cbr -e 1000 -c 0 -i 43 -a 0 -x {2.0 0.0 5 ------- null}
- -t 0.200085714285714 -s 1 -d 0 -p cbr -e 1000 -c 0 -i 43 -a 0 -x {2.0 0.0 5 ------- null}
h -t 0.200085714285714 -s 1 -d 0 -p cbr -e 1000 -c 0 -i 43 -a 0 -x {2.0 0.0 -1 ------- null}
+ -t 0.207142857142857 -s 2 -d 1 -p cbr -e 1000 -c 0 -i 44 -a 0 -x {2.0 0.0 6 ------- null}
- -t 0.207142857142857 -s 2 -d 1 -p cbr -e 1000 -c 0 -i 44 -a 0 -x {2.0 0.0 6 ------- null}
h -t 0.207142857142857 -s 2 -d 1 -p cbr -e 1000 -c 0 -i 44 -a 0 -x {2.0 0.0 -1 ------- null}
r -t 0.210885714285714 -s 1 -d 0 -p cbr -e 1000 -c 0 -i 43 -a 0 -x {2.0 0.0 5 ------- null}
r -t 0.217942857142857 -s 2 -d 1 -p cbr -e 1000 -c 0 -i 44 -a 0 -x {2.0 0.0 6 ------- null}
+ -t 0.217942857142857 -s 1 -d 0 -p cbr -e 1000 -c 0 -i 44 -a 0 -x {2.0 0.0 6 ------- null}
- -t 0.217942857142857 -s 1 -d 0 -p cbr -e 1000 -c 0 -i 44 -a 0 -x {2.0 0.0 6 ------- null}
h -t 0.217942857142857 -s 1 -d 0 -p cbr -e 1000 -c 0 -i 44 -a 0 -x {2.0 0.0 -1 ------- null}
+ -t 0.22058669092161 -s 4 -d 3 -p rtProtoDV -e 6 -c 0 -i 45 -a 0 -x {4.1 3.1 -1 ------- null}
- -t 0.22058669092161 -s 4 -d 3 -p rtProtoDV -e 6 -c 0 -i 45 -a 0 -x {4.1 3.1 -1 ------- null}
h -t 0.22058669092161 -s 4 -d 3 -p rtProtoDV -e 6 -c 0 -i 45 -a 0 -x {4.1 3.1 -1 ------- null}
+ -t 0.22058669092161 -s 4 -d 5 -p rtProtoDV -e 6 -c 0 -i 46 -a 0 -x {4.1 5.1 -1 ------- null}
- -t 0.22058669092161 -s 4 -d 5 -p rtProtoDV -e 6 -c 0 -i 46 -a 0 -x {4.1 5.1 -1 ------- null}
h -t 0.22058669092161 -s 4 -d 5 -p rtProtoDV -e 6 -c 0 -i 46 -a 0 -x {4.1 5.1 -1 ------- null}
+ -t 0.225 -s 2 -d 1 -p cbr -e 1000 -c 0 -i 47 -a 0 -x {2.0 0.0 7 ------- null}
- -t 0.225 -s 2 -d 1 -p cbr -e 1000 -c 0 -i 47 -a 0 -x {2.0 0.0 7 ------- null}
h -t 0.225 -s 2 -d 1 -p cbr -e 1000 -c 0 -i 47 -a 0 -x {2.0 0.0 -1 ------- null}
r -t 0.228742857142857 -s 1 -d 0 -p cbr -e 1000 -c 0 -i 44 -a 0 -x {2.0 0.0 6 ------- null}
r -t 0.23059149092161 -s 4 -d 3 -p rtProtoDV -e 6 -c 0 -i 45 -a 0 -x {4.1 3.1 -1 ------- null}
r -t 0.23059149092161 -s 4 -d 5 -p rtProtoDV -e 6 -c 0 -i 46 -a 0 -x {4.1 5.1 -1 ------- null}
r -t 0.2358 -s 2 -d 1 -p cbr -e 1000 -c 0 -i 47 -a 0 -x {2.0 0.0 7 ------- null}
+ -t 0.2358 -s 1 -d 0 -p cbr -e 1000 -c 0 -i 47 -a 0 -x {2.0 0.0 7 ------- null}
- -t 0.2358 -s 1 -d 0 -p cbr -e 1000 -c 0 -i 47 -a 0 -x {2.0 0.0 7 ------- null}
h -t 0.2358 -s 1 -d 0 -p cbr -e 1000 -c 0 -i 47 -a 0 -x {2.0 0.0 -1 ------- null}
+ -t 0.242857142857143 -s 2 -d 1 -p cbr -e 1000 -c 0 -i 48 -a 0 -x {2.0 0.0 8 ------- null}
- -t 0.242857142857143 -s 2 -d 1 -p cbr -e 1000 -c 0 -i 48 -a 0 -x {2.0 0.0 8 ------- null}
h -t 0.242857142857143 -s 2 -d 1 -p cbr -e 1000 -c 0 -i 48 -a 0 -x {2.0 0.0 -1 ------- null}
r -t 0.2466 -s 1 -d 0 -p cbr -e 1000 -c 0 -i 47 -a 0 -x {2.0 0.0 7 ------- null}
r -t 0.253657142857143 -s 2 -d 1 -p cbr -e 1000 -c 0 -i 48 -a 0 -x {2.0 0.0 8 ------- null}
+ -t 0.253657142857143 -s 1 -d 0 -p cbr -e 1000 -c 0 -i 48 -a 0 -x {2.0 0.0 8 ------- null}
- -t 0.253657142857143 -s 1 -d 0 -p cbr -e 1000 -c 0 -i 48 -a 0 -x {2.0 0.0 8 ------- null}
h -t 0.253657142857143 -s 1 -d 0 -p cbr -e 1000 -c 0 -i 48 -a 0 -x {2.0 0.0 -1 ------- null}
+ -t 0.260714285714286 -s 2 -d 1 -p cbr -e 1000 -c 0 -i 49 -a 0 -x {2.0 0.0 9 ------- null}
- -t 0.260714285714286 -s 2 -d 1 -p cbr -e 1000 -c 0 -i 49 -a 0 -x {2.0 0.0 9 ------- null}
h -t 0.260714285714286 -s 2 -d 1 -p cbr -e 1000 -c 0 -i 49 -a 0 -x {2.0 0.0 -1 ------- null}
r -t 0.264457142857143 -s 1 -d 0 -p cbr -e 1000 -c 0 -i 48 -a 0 -x {2.0 0.0 8 ------- null}
r -t 0.271514285714286 -s 2 -d 1 -p cbr -e 1000 -c 0 -i 49 -a 0 -x {2.0 0.0 9 ------- null}
+ -t 0.271514285714286 -s 1 -d 0 -p cbr -e 1000 -c 0 -i 49 -a 0 -x {2.0 0.0 9 ------- null}
- -t 0.271514285714286 -s 1 -d 0 -p cbr -e 1000 -c 0 -i 49 -a 0 -x {2.0 0.0 9 ------- null}
h -t 0.271514285714286 -s 1 -d 0 -p cbr -e 1000 -c 0 -i 49 -a 0 -x {2.0 0.0 -1 ------- null}
+ -t 0.277940357931862 -s 1 -d 0 -p rtProtoDV -e 6 -c 0 -i 50 -a 0 -x {1.1 0.2 -1 ------- null}
- -t 0.277940357931862 -s 1 -d 0 -p rtProtoDV -e 6 -c 0 -i 50 -a 0 -x {1.1 0.2 -1 ------- null}
h -t 0.277940357931862 -s 1 -d 0 -p rtProtoDV -e 6 -c 0 -i 50 -a 0 -x {1.1 0.2 -1 ------- null}
+ -t 0.277940357931862 -s 1 -d 2 -p rtProtoDV -e 6 -c 0 -i 51 -a 0 -x {1.1 2.2 -1 ------- null}
- -t 0.277940357931862 -s 1 -d 2 -p rtProtoDV -e 6 -c 0 -i 51 -a 0 -x {1.1 2.2 -1 ------- null}
h -t 0.277940357931862 -s 1 -d 2 -p rtProtoDV -e 6 -c 0 -i 51 -a 0 -x {1.1 2.2 -1 ------- null}
+ -t 0.278571428571429 -s 2 -d 1 -p cbr -e 1000 -c 0 -i 52 -a 0 -x {2.0 0.0 10 ------- null}
- -t 0.278571428571429 -s 2 -d 1 -p cbr -e 1000 -c 0 -i 52 -a 0 -x {2.0 0.0 10 ------- null}
h -t 0.278571428571429 -s 2 -d 1 -p cbr -e 1000 -c 0 -i 52 -a 0 -x {2.0 0.0 -1 ------- null}
r -t 0.282314285714286 -s 1 -d 0 -p cbr -e 1000 -c 0 -i 49 -a 0 -x {2.0 0.0 9 ------- null}
r -t 0.287945157931862 -s 1 -d 0 -p rtProtoDV -e 6 -c 0 -i 50 -a 0 -x {1.1 0.2 -1 ------- null}
r -t 0.287945157931862 -s 1 -d 2 -p rtProtoDV -e 6 -c 0 -i 51 -a 0 -x {1.1 2.2 -1 ------- null}
r -t 0.289371428571429 -s 2 -d 1 -p cbr -e 1000 -c 0 -i 52 -a 0 -x {2.0 0.0 10 ------- null}
+ -t 0.289371428571429 -s 1 -d 0 -p cbr -e 1000 -c 0 -i 52 -a 0 -x {2.0 0.0 10 ------- null}
- -t 0.289371428571429 -s 1 -d 0 -p cbr -e 1000 -c 0 -i 52 -a 0 -x {2.0 0.0 10 ------- null}
h -t 0.289371428571429 -s 1 -d 0 -p cbr -e 1000 -c 0 -i 52 -a 0 -x {2.0 0.0 -1 ------- null}
+ -t 0.296428571428571 -s 2 -d 1 -p cbr -e 1000 -c 0 -i 53 -a 0 -x {2.0 0.0 11 ------- null}
- -t 0.296428571428571 -s 2 -d 1 -p cbr -e 1000 -c 0 -i 53 -a 0 -x {2.0 0.0 11 ------- null}
h -t 0.296428571428571 -s 2 -d 1 -p cbr -e 1000 -c 0 -i 53 -a 0 -x {2.0 0.0 -1 ------- null}
r -t 0.300171428571428 -s 1 -d 0 -p cbr -e 1000 -c 0 -i 52 -a 0 -x {2.0 0.0 10 ------- null}
r -t 0.307228571428571 -s 2 -d 1 -p cbr -e 1000 -c 0 -i 53 -a 0 -x {2.0 0.0 11 ------- null}
+ -t 0.307228571428571 -s 1 -d 0 -p cbr -e 1000 -c 0 -i 53 -a 0 -x {2.0 0.0 11 ------- null}
- -t 0.307228571428571 -s 1 -d 0 -p cbr -e 1000 -c 0 -i 53 -a 0 -x {2.0 0.0 11 ------- null}
h -t 0.307228571428571 -s 1 -d 0 -p cbr -e 1000 -c 0 -i 53 -a 0 -x {2.0 0.0 -1 ------- null}
+ -t 0.314285714285714 -s 2 -d 1 -p cbr -e 1000 -c 0 -i 54 -a 0 -x {2.0 0.0 12 ------- null}
- -t 0.314285714285714 -s 2 -d 1 -p cbr -e 1000 -c 0 -i 54 -a 0 -x {2.0 0.0 12 ------- null}
h -t 0.314285714285714 -s 2 -d 1 -p cbr -e 1000 -c 0 -i 54 -a 0 -x {2.0 0.0 -1 ------- null}
r -t 0.318028571428571 -s 1 -d 0 -p cbr -e 1000 -c 0 -i 53 -a 0 -x {2.0 0.0 11 ------- null}
r -t 0.325085714285714 -s 2 -d 1 -p cbr -e 1000 -c 0 -i 54 -a 0 -x {2.0 0.0 12 ------- null}
+ -t 0.325085714285714 -s 1 -d 0 -p cbr -e 1000 -c 0 -i 54 -a 0 -x {2.0 0.0 12 ------- null}
- -t 0.325085714285714 -s 1 -d 0 -p cbr -e 1000 -c 0 -i 54 -a 0 -x {2.0 0.0 12 ------- null}
h -t 0.325085714285714 -s 1 -d 0 -p cbr -e 1000 -c 0 -i 54 -a 0 -x {2.0 0.0 -1 ------- null}
+ -t 0.332142857142857 -s 2 -d 1 -p cbr -e 1000 -c 0 -i 55 -a 0 -x {2.0 0.0 13 ------- null}
- -t 0.332142857142857 -s 2 -d 1 -p cbr -e 1000 -c 0 -i 55 -a 0 -x {2.0 0.0 13 ------- null}
h -t 0.332142857142857 -s 2 -d 1 -p cbr -e 1000 -c 0 -i 55 -a 0 -x {2.0 0.0 -1 ------- null}
r -t 0.335885714285714 -s 1 -d 0 -p cbr -e 1000 -c 0 -i 54 -a 0 -x {2.0 0.0 12 ------- null}
r -t 0.342942857142857 -s 2 -d 1 -p cbr -e 1000 -c 0 -i 55 -a 0 -x {2.0 0.0 13 ------- null}
+ -t 0.342942857142857 -s 1 -d 0 -p cbr -e 1000 -c 0 -i 55 -a 0 -x {2.0 0.0 13 ------- null}
- -t 0.342942857142857 -s 1 -d 0 -p cbr -e 1000 -c 0 -i 55 -a 0 -x {2.0 0.0 13 ------- null}
h -t 0.342942857142857 -s 1 -d 0 -p cbr -e 1000 -c 0 -i 55 -a 0 -x {2.0 0.0 -1 ------- null}
+ -t 0.35 -s 2 -d 1 -p cbr -e 1000 -c 0 -i 56 -a 0 -x {2.0 0.0 14 ------- null}
- -t 0.35 -s 2 -d 1 -p cbr -e 1000 -c 0 -i 56 -a 0 -x {2.0 0.0 14 ------- null}
h -t 0.35 -s 2 -d 1 -p cbr -e 1000 -c 0 -i 56 -a 0 -x {2.0 0.0 -1 ------- null}
r -t 0.353742857142857 -s 1 -d 0 -p cbr -e 1000 -c 0 -i 55 -a 0 -x {2.0 0.0 13 ------- null}
r -t 0.3608 -s 2 -d 1 -p cbr -e 1000 -c 0 -i 56 -a 0 -x {2.0 0.0 14 ------- null}
+ -t 0.3608 -s 1 -d 0 -p cbr -e 1000 -c 0 -i 56 -a 0 -x {2.0 0.0 14 ------- null}
- -t 0.3608 -s 1 -d 0 -p cbr -e 1000 -c 0 -i 56 -a 0 -x {2.0 0.0 14 ------- null}
h -t 0.3608 -s 1 -d 0 -p cbr -e 1000 -c 0 -i 56 -a 0 -x {2.0 0.0 -1 ------- null}
+ -t 0.367857142857143 -s 2 -d 1 -p cbr -e 1000 -c 0 -i 57 -a 0 -x {2.0 0.0 15 ------- null}
- -t 0.367857142857143 -s 2 -d 1 -p cbr -e 1000 -c 0 -i 57 -a 0 -x {2.0 0.0 15 ------- null}
h -t 0.367857142857143 -s 2 -d 1 -p cbr -e 1000 -c 0 -i 57 -a 0 -x {2.0 0.0 -1 ------- null}
r -t 0.3716 -s 1 -d 0 -p cbr -e 1000 -c 0 -i 56 -a 0 -x {2.0 0.0 14 ------- null}
r -t 0.378657142857143 -s 2 -d 1 -p cbr -e 1000 -c 0 -i 57 -a 0 -x {2.0 0.0 15 ------- null}
+ -t 0.378657142857143 -s 1 -d 0 -p cbr -e 1000 -c 0 -i 57 -a 0 -x {2.0 0.0 15 ------- null}
- -t 0.378657142857143 -s 1 -d 0 -p cbr -e 1000 -c 0 -i 57 -a 0 -x {2.0 0.0 15 ------- null}
h -t 0.378657142857143 -s 1 -d 0 -p cbr -e 1000 -c 0 -i 57 -a 0 -x {2.0 0.0 -1 ------- null}
+ -t 0.385714285714286 -s 2 -d 1 -p cbr -e 1000 -c 0 -i 58 -a 0 -x {2.0 0.0 16 ------- null}
- -t 0.385714285714286 -s 2 -d 1 -p cbr -e 1000 -c 0 -i 58 -a 0 -x {2.0 0.0 16 ------- null}
h -t 0.385714285714286 -s 2 -d 1 -p cbr -e 1000 -c 0 -i 58 -a 0 -x {2.0 0.0 -1 ------- null}
r -t 0.389457142857143 -s 1 -d 0 -p cbr -e 1000 -c 0 -i 57 -a 0 -x {2.0 0.0 15 ------- null}
r -t 0.396514285714286 -s 2 -d 1 -p cbr -e 1000 -c 0 -i 58 -a 0 -x {2.0 0.0 16 ------- null}
+ -t 0.396514285714286 -s 1 -d 0 -p cbr -e 1000 -c 0 -i 58 -a 0 -x {2.0 0.0 16 ------- null}
- -t 0.396514285714286 -s 1 -d 0 -p cbr -e 1000 -c 0 -i 58 -a 0 -x {2.0 0.0 16 ------- null}
h -t 0.396514285714286 -s 1 -d 0 -p cbr -e 1000 -c 0 -i 58 -a 0 -x {2.0 0.0 -1 ------- null}
+ -t 0.399577726796073 -s 5 -d 0 -p rtProtoDV -e 6 -c 0 -i 59 -a 0 -x {5.1 0.2 -1 ------- null}
- -t 0.399577726796073 -s 5 -d 0 -p rtProtoDV -e 6 -c 0 -i 59 -a 0 -x {5.1 0.2 -1 ------- null}
h -t 0.399577726796073 -s 5 -d 0 -p rtProtoDV -e 6 -c 0 -i 59 -a 0 -x {5.1 0.2 -1 ------- null}
+ -t 0.399577726796073 -s 5 -d 4 -p rtProtoDV -e 6 -c 0 -i 60 -a 0 -x {5.1 4.1 -1 ------- null}
- -t 0.399577726796073 -s 5 -d 4 -p rtProtoDV -e 6 -c 0 -i 60 -a 0 -x {5.1 4.1 -1 ------- null}
h -t 0.399577726796073 -s 5 -d 4 -p rtProtoDV -e 6 -c 0 -i 60 -a 0 -x {5.1 4.1 -1 ------- null}
+ -t 0.403571428571428 -s 2 -d 1 -p cbr -e 1000 -c 0 -i 61 -a 0 -x {2.0 0.0 17 ------- null}
- -t 0.403571428571428 -s 2 -d 1 -p cbr -e 1000 -c 0 -i 61 -a 0 -x {2.0 0.0 17 ------- null}