V -t * -v 1.0a5 -a 0
A -t * -n 1 -p 0 -o 0x7fffffff -c 30 -a 1
A -t * -h 1 -m 1073741823 -s 0
n -t * -a 0 -s 0 -S UP -v circle -c black -i black
n -t * -a 1 -s 1 -S UP -v circle -c black -i black
n -t * -a 2 -s 2 -S UP -v circle -c black -i black
n -t * -a 3 -s 3 -S UP -v circle -c black -i black
n -t * -a 4 -s 4 -S UP -v circle -c black -i black
n -t * -a 5 -s 5 -S UP -v circle -c black -i black
n -t * -a 6 -s 6 -S UP -v circle -c black -i black
n -t * -a 7 -s 7 -S UP -v circle -c black -i black
n -t * -a 8 -s 8 -S UP -v circle -c black -i black
n -t * -a 9 -s 9 -S UP -v circle -c black -i black
n -t * -a 10 -s 10 -S UP -v circle -c black -i black
n -t * -a 11 -s 11 -S UP -v circle -c black -i black
n -t * -a 12 -s 12 -S UP -v circle -c black -i black
n -t * -a 13 -s 13 -S UP -v circle -c black -i black
l -t * -s 0 -d 8 -S UP -r 20000000 -D 0.01 -c black
l -t * -s 1 -d 8 -S UP -r 20000000 -D 0.01 -c black
l -t * -s 2 -d 8 -S UP -r 20000000 -D 0.01 -c black
l -t * -s 3 -d 8 -S UP -r 20000000 -D 0.01 -c black
l -t * -s 4 -d 9 -S UP -r 20000000 -D 0.01 -c black
l -t * -s 5 -d 9 -S UP -r 20000000 -D 0.01 -c black
l -t * -s 6 -d 9 -S UP -r 20000000 -D 0.01 -c black
l -t * -s 7 -d 9 -S UP -r 20000000 -D 0.01 -c black
l -t * -s 8 -d 10 -S UP -r 20000000 -D 0.01 -c black
l -t * -s 9 -d 10 -S UP -r 20000000 -D 0.01 -c black
l -t * -s 10 -d 11 -S UP -r 20000000 -D 0.01 -c black
l -t * -s 10 -d 12 -S UP -r 20000000 -D 0.01 -c black
l -t * -s 11 -d 12 -S UP -r 20000000 -D 0.01 -c black
l -t * -s 11 -d 13 -S UP -r 20000000 -D 0.01 -c black
+ -t 0.5 -s 0 -d 8 -p tcp -e 40 -c 0 -i 0 -a 0 -x {0.0 13.0 0 ------- null}
- -t 0.5 -s 0 -d 8 -p tcp -e 40 -c 0 -i 0 -a 0 -x {0.0 13.0 0 ------- null}
h -t 0.5 -s 0 -d 8 -p tcp -e 40 -c 0 -i 0 -a 0 -x {0.0 13.0 -1 ------- null}
r -t 0.510016 -s 0 -d 8 -p tcp -e 40 -c 0 -i 0 -a 0 -x {0.0 13.0 0 ------- null}
+ -t 0.510016 -s 8 -d 10 -p tcp -e 40 -c 0 -i 0 -a 0 -x {0.0 13.0 0 ------- null}
- -t 0.510016 -s 8 -d 10 -p tcp -e 40 -c 0 -i 0 -a 0 -x {0.0 13.0 0 ------- null}
h -t 0.510016 -s 8 -d 10 -p tcp -e 40 -c 0 -i 0 -a 0 -x {0.0 13.0 -1 ------- null}
r -t 0.520032 -s 8 -d 10 -p tcp -e 40 -c 0 -i 0 -a 0 -x {0.0 13.0 0 ------- null}
+ -t 0.520032 -s 10 -d 11 -p tcp -e 40 -c 0 -i 0 -a 0 -x {0.0 13.0 0 ------- null}
- -t 0.520032 -s 10 -d 11 -p tcp -e 40 -c 0 -i 0 -a 0 -x {0.0 13.0 0 ------- null}
h -t 0.520032 -s 10 -d 11 -p tcp -e 40 -c 0 -i 0 -a 0 -x {0.0 13.0 -1 ------- null}
r -t 0.530048 -s 10 -d 11 -p tcp -e 40 -c 0 -i 0 -a 0 -x {0.0 13.0 0 ------- null}
+ -t 0.530048 -s 11 -d 13 -p tcp -e 40 -c 0 -i 0 -a 0 -x {0.0 13.0 0 ------- null}
- -t 0.530048 -s 11 -d 13 -p tcp -e 40 -c 0 -i 0 -a 0 -x {0.0 13.0 0 ------- null}
h -t 0.530048 -s 11 -d 13 -p tcp -e 40 -c 0 -i 0 -a 0 -x {0.0 13.0 -1 ------- null}
r -t 0.540064 -s 11 -d 13 -p tcp -e 40 -c 0 -i 0 -a 0 -x {0.0 13.0 0 ------- null}
+ -t 0.540064 -s 13 -d 11 -p ack -e 40 -c 0 -i 1 -a 0 -x {13.0 0.0 0 ------- null}
- -t 0.540064 -s 13 -d 11 -p ack -e 40 -c 0 -i 1 -a 0 -x {13.0 0.0 0 ------- null}
h -t 0.540064 -s 13 -d 11 -p ack -e 40 -c 0 -i 1 -a 0 -x {13.0 0.0 -1 ------- null}
r -t 0.55008 -s 13 -d 11 -p ack -e 40 -c 0 -i 1 -a 0 -x {13.0 0.0 0 ------- null}
+ -t 0.55008 -s 11 -d 10 -p ack -e 40 -c 0 -i 1 -a 0 -x {13.0 0.0 0 ------- null}
- -t 0.55008 -s 11 -d 10 -p ack -e 40 -c 0 -i 1 -a 0 -x {13.0 0.0 0 ------- null}
h -t 0.55008 -s 11 -d 10 -p ack -e 40 -c 0 -i 1 -a 0 -x {13.0 0.0 -1 ------- null}
r -t 0.560096 -s 11 -d 10 -p ack -e 40 -c 0 -i 1 -a 0 -x {13.0 0.0 0 ------- null}
+ -t 0.560096 -s 10 -d 8 -p ack -e 40 -c 0 -i 1 -a 0 -x {13.0 0.0 0 ------- null}
- -t 0.560096 -s 10 -d 8 -p ack -e 40 -c 0 -i 1 -a 0 -x {13.0 0.0 0 ------- null}
h -t 0.560096 -s 10 -d 8 -p ack -e 40 -c 0 -i 1 -a 0 -x {13.0 0.0 -1 ------- null}
r -t 0.570112 -s 10 -d 8 -p ack -e 40 -c 0 -i 1 -a 0 -x {13.0 0.0 0 ------- null}
+ -t 0.570112 -s 8 -d 0 -p ack -e 40 -c 0 -i 1 -a 0 -x {13.0 0.0 0 ------- null}
- -t 0.570112 -s 8 -d 0 -p ack -e 40 -c 0 -i 1 -a 0 -x {13.0 0.0 0 ------- null}
h -t 0.570112 -s 8 -d 0 -p ack -e 40 -c 0 -i 1 -a 0 -x {13.0 0.0 -1 ------- null}
r -t 0.580128 -s 8 -d 0 -p ack -e 40 -c 0 -i 1 -a 0 -x {13.0 0.0 0 ------- null}
+ -t 0.580128 -s 0 -d 8 -p tcp -e 1040 -c 0 -i 2 -a 0 -x {0.0 13.0 1 ------- null}
- -t 0.580128 -s 0 -d 8 -p tcp -e 1040 -c 0 -i 2 -a 0 -x {0.0 13.0 1 ------- null}
h -t 0.580128 -s 0 -d 8 -p tcp -e 1040 -c 0 -i 2 -a 0 -x {0.0 13.0 -1 ------- null}
+ -t 0.580128 -s 0 -d 8 -p tcp -e 1040 -c 0 -i 3 -a 0 -x {0.0 13.0 2 ------- null}
- -t 0.580544 -s 0 -d 8 -p tcp -e 1040 -c 0 -i 3 -a 0 -x {0.0 13.0 2 ------- null}
h -t 0.580544 -s 0 -d 8 -p tcp -e 1040 -c 0 -i 3 -a 0 -x {0.0 13.0 -1 ------- null}
r -t 0.590544 -s 0 -d 8 -p tcp -e 1040 -c 0 -i 2 -a 0 -x {0.0 13.0 1 ------- null}
+ -t 0.590544 -s 8 -d 10 -p tcp -e 1040 -c 0 -i 2 -a 0 -x {0.0 13.0 1 ------- null}
- -t 0.590544 -s 8 -d 10 -p tcp -e 1040 -c 0 -i 2 -a 0 -x {0.0 13.0 1 ------- null}
h -t 0.590544 -s 8 -d 10 -p tcp -e 1040 -c 0 -i 2 -a 0 -x {0.0 13.0 -1 ------- null}
r -t 0.59096 -s 0 -d 8 -p tcp -e 1040 -c 0 -i 3 -a 0 -x {0.0 13.0 2 ------- null}
+ -t 0.59096 -s 8 -d 10 -p tcp -e 1040 -c 0 -i 3 -a 0 -x {0.0 13.0 2 ------- null}
- -t 0.59096 -s 8 -d 10 -p tcp -e 1040 -c 0 -i 3 -a 0 -x {0.0 13.0 2 ------- null}
h -t 0.59096 -s 8 -d 10 -p tcp -e 1040 -c 0 -i 3 -a 0 -x {0.0 13.0 -1 ------- null}
r -t 0.60096 -s 8 -d 10 -p tcp -e 1040 -c 0 -i 2 -a 0 -x {0.0 13.0 1 ------- null}
+ -t 0.60096 -s 10 -d 11 -p tcp -e 1040 -c 0 -i 2 -a 0 -x {0.0 13.0 1 ------- null}
- -t 0.60096 -s 10 -d 11 -p tcp -e 1040 -c 0 -i 2 -a 0 -x {0.0 13.0 1 ------- null}
h -t 0.60096 -s 10 -d 11 -p tcp -e 1040 -c 0 -i 2 -a 0 -x {0.0 13.0 -1 ------- null}
r -t 0.601376 -s 8 -d 10 -p tcp -e 1040 -c 0 -i 3 -a 0 -x {0.0 13.0 2 ------- null}
+ -t 0.601376 -s 10 -d 11 -p tcp -e 1040 -c 0 -i 3 -a 0 -x {0.0 13.0 2 ------- null}
- -t 0.601376 -s 10 -d 11 -p tcp -e 1040 -c 0 -i 3 -a 0 -x {0.0 13.0 2 ------- null}
h -t 0.601376 -s 10 -d 11 -p tcp -e 1040 -c 0 -i 3 -a 0 -x {0.0 13.0 -1 ------- null}
r -t 0.611376 -s 10 -d 11 -p tcp -e 1040 -c 0 -i 2 -a 0 -x {0.0 13.0 1 ------- null}
+ -t 0.611376 -s 11 -d 13 -p tcp -e 1040 -c 0 -i 2 -a 0 -x {0.0 13.0 1 ------- null}
- -t 0.611376 -s 11 -d 13 -p tcp -e 1040 -c 0 -i 2 -a 0 -x {0.0 13.0 1 ------- null}
h -t 0.611376 -s 11 -d 13 -p tcp -e 1040 -c 0 -i 2 -a 0 -x {0.0 13.0 -1 ------- null}
r -t 0.611792 -s 10 -d 11 -p tcp -e 1040 -c 0 -i 3 -a 0 -x {0.0 13.0 2 ------- null}
+ -t 0.611792 -s 11 -d 13 -p tcp -e 1040 -c 0 -i 3 -a 0 -x {0.0 13.0 2 ------- null}
- -t 0.611792 -s 11 -d 13 -p tcp -e 1040 -c 0 -i 3 -a 0 -x {0.0 13.0 2 ------- null}
h -t 0.611792 -s 11 -d 13 -p tcp -e 1040 -c 0 -i 3 -a 0 -x {0.0 13.0 -1 ------- null}
r -t 0.621792 -s 11 -d 13 -p tcp -e 1040 -c 0 -i 2 -a 0 -x {0.0 13.0 1 ------- null}
+ -t 0.621792 -s 13 -d 11 -p ack -e 40 -c 0 -i 4 -a 0 -x {13.0 0.0 1 ------- null}
- -t 0.621792 -s 13 -d 11 -p ack -e 40 -c 0 -i 4 -a 0 -x {13.0 0.0 1 ------- null}
h -t 0.621792 -s 13 -d 11 -p ack -e 40 -c 0 -i 4 -a 0 -x {13.0 0.0 -1 ------- null}
r -t 0.622208 -s 11 -d 13 -p tcp -e 1040 -c 0 -i 3 -a 0 -x {0.0 13.0 2 ------- null}
+ -t 0.622208 -s 13 -d 11 -p ack -e 40 -c 0 -i 5 -a 0 -x {13.0 0.0 2 ------- null}
- -t 0.622208 -s 13 -d 11 -p ack -e 40 -c 0 -i 5 -a 0 -x {13.0 0.0 2 ------- null}
h -t 0.622208 -s 13 -d 11 -p ack -e 40 -c 0 -i 5 -a 0 -x {13.0 0.0 -1 ------- null}
r -t 0.631808 -s 13 -d 11 -p ack -e 40 -c 0 -i 4 -a 0 -x {13.0 0.0 1 ------- null}
+ -t 0.631808 -s 11 -d 10 -p ack -e 40 -c 0 -i 4 -a 0 -x {13.0 0.0 1 ------- null}
- -t 0.631808 -s 11 -d 10 -p ack -e 40 -c 0 -i 4 -a 0 -x {13.0 0.0 1 ------- null}
h -t 0.631808 -s 11 -d 10 -p ack -e 40 -c 0 -i 4 -a 0 -x {13.0 0.0 -1 ------- null}
r -t 0.632224 -s 13 -d 11 -p ack -e 40 -c 0 -i 5 -a 0 -x {13.0 0.0 2 ------- null}
+ -t 0.632224 -s 11 -d 10 -p ack -e 40 -c 0 -i 5 -a 0 -x {13.0 0.0 2 ------- null}
- -t 0.632224 -s 11 -d 10 -p ack -e 40 -c 0 -i 5 -a 0 -x {13.0 0.0 2 ------- null}
h -t 0.632224 -s 11 -d 10 -p ack -e 40 -c 0 -i 5 -a 0 -x {13.0 0.0 -1 ------- null}
r -t 0.641824 -s 11 -d 10 -p ack -e 40 -c 0 -i 4 -a 0 -x {13.0 0.0 1 ------- null}
+ -t 0.641824 -s 10 -d 8 -p ack -e 40 -c 0 -i 4 -a 0 -x {13.0 0.0 1 ------- null}
- -t 0.641824 -s 10 -d 8 -p ack -e 40 -c 0 -i 4 -a 0 -x {13.0 0.0 1 ------- null}
h -t 0.641824 -s 10 -d 8 -p ack -e 40 -c 0 -i 4 -a 0 -x {13.0 0.0 -1 ------- null}
r -t 0.64224 -s 11 -d 10 -p ack -e 40 -c 0 -i 5 -a 0 -x {13.0 0.0 2 ------- null}
+ -t 0.64224 -s 10 -d 8 -p ack -e 40 -c 0 -i 5 -a 0 -x {13.0 0.0 2 ------- null}
- -t 0.64224 -s 10 -d 8 -p ack -e 40 -c 0 -i 5 -a 0 -x {13.0 0.0 2 ------- null}
h -t 0.64224 -s 10 -d 8 -p ack -e 40 -c 0 -i 5 -a 0 -x {13.0 0.0 -1 ------- null}
r -t 0.65184 -s 10 -d 8 -p ack -e 40 -c 0 -i 4 -a 0 -x {13.0 0.0 1 ------- null}
+ -t 0.65184 -s 8 -d 0 -p ack -e 40 -c 0 -i 4 -a 0 -x {13.0 0.0 1 ------- null}
- -t 0.65184 -s 8 -d 0 -p ack -e 40 -c 0 -i 4 -a 0 -x {13.0 0.0 1 ------- null}
h -t 0.65184 -s 8 -d 0 -p ack -e 40 -c 0 -i 4 -a 0 -x {13.0 0.0 -1 ------- null}
r -t 0.652256 -s 10 -d 8 -p ack -e 40 -c 0 -i 5 -a 0 -x {13.0 0.0 2 ------- null}
+ -t 0.652256 -s 8 -d 0 -p ack -e 40 -c 0 -i 5 -a 0 -x {13.0 0.0 2 ------- null}
- -t 0.652256 -s 8 -d 0 -p ack -e 40 -c 0 -i 5 -a 0 -x {13.0 0.0 2 ------- null}
h -t 0.652256 -s 8 -d 0 -p ack -e 40 -c 0 -i 5 -a 0 -x {13.0 0.0 -1 ------- null}
r -t 0.661856 -s 8 -d 0 -p ack -e 40 -c 0 -i 4 -a 0 -x {13.0 0.0 1 ------- null}
+ -t 0.661856 -s 0 -d 8 -p tcp -e 1040 -c 0 -i 6 -a 0 -x {0.0 13.0 3 ------- null}
- -t 0.661856 -s 0 -d 8 -p tcp -e 1040 -c 0 -i 6 -a 0 -x {0.0 13.0 3 ------- null}
h -t 0.661856 -s 0 -d 8 -p tcp -e 1040 -c 0 -i 6 -a 0 -x {0.0 13.0 -1 ------- null}
+ -t 0.661856 -s 0 -d 8 -p tcp -e 1040 -c 0 -i 7 -a 0 -x {0.0 13.0 4 ------- null}
r -t 0.662272 -s 8 -d 0 -p ack -e 40 -c 0 -i 5 -a 0 -x {13.0 0.0 2 ------- null}
+ -t 0.662272 -s 0 -d 8 -p tcp -e 1040 -c 0 -i 8 -a 0 -x {0.0 13.0 5 ------- null}
+ -t 0.662272 -s 0 -d 8 -p tcp -e 1040 -c 0 -i 9 -a 0 -x {0.0 13.0 6 ------- null}
- -t 0.662272 -s 0 -d 8 -p tcp -e 1040 -c 0 -i 7 -a 0 -x {0.0 13.0 4 ------- null}
h -t 0.662272 -s 0 -d 8 -p tcp -e 1040 -c 0 -i 7 -a 0 -x {0.0 13.0 -1 ------- null}
- -t 0.662688 -s 0 -d 8 -p tcp -e 1040 -c 0 -i 8 -a 0 -x {0.0 13.0 5 ------- null}
h -t 0.662688 -s 0 -d 8 -p tcp -e 1040 -c 0 -i 8 -a 0 -x {0.0 13.0 -1 ------- null}
- -t 0.663104 -s 0 -d 8 -p tcp -e 1040 -c 0 -i 9 -a 0 -x {0.0 13.0 6 ------- null}
h -t 0.663104 -s 0 -d 8 -p tcp -e 1040 -c 0 -i 9 -a 0 -x {0.0 13.0 -1 ------- null}
r -t 0.672272 -s 0 -d 8 -p tcp -e 1040 -c 0 -i 6 -a 0 -x {0.0 13.0 3 ------- null}
+ -t 0.672272 -s 8 -d 10 -p tcp -e 1040 -c 0 -i 6 -a 0 -x {0.0 13.0 3 ------- null}
- -t 0.672272 -s 8 -d 10 -p tcp -e 1040 -c 0 -i 6 -a 0 -x {0.0 13.0 3 ------- null}
h -t 0.672272 -s 8 -d 10 -p tcp -e 1040 -c 0 -i 6 -a 0 -x {0.0 13.0 -1 ------- null}
r -t 0.672688 -s 0 -d 8 -p tcp -e 1040 -c 0 -i 7 -a 0 -x {0.0 13.0 4 ------- null}
+ -t 0.672688 -s 8 -d 10 -p tcp -e 1040 -c 0 -i 7 -a 0 -x {0.0 13.0 4 ------- null}
- -t 0.672688 -s 8 -d 10 -p tcp -e 1040 -c 0 -i 7 -a 0 -x {0.0 13.0 4 ------- null}
h -t 0.672688 -s 8 -d 10 -p tcp -e 1040 -c 0 -i 7 -a 0 -x {0.0 13.0 -1 ------- null}
r -t 0.673104 -s 0 -d 8 -p tcp -e 1040 -c 0 -i 8 -a 0 -x {0.0 13.0 5 ------- null}
+ -t 0.673104 -s 8 -d 10 -p tcp -e 1040 -c 0 -i 8 -a 0 -x {0.0 13.0 5 ------- null}
- -t 0.673104 -s 8 -d 10 -p tcp -e 1040 -c 0 -i 8 -a 0 -x {0.0 13.0 5 ------- null}
h -t 0.673104 -s 8 -d 10 -p tcp -e 1040 -c 0 -i 8 -a 0 -x {0.0 13.0 -1 ------- null}
r -t 0.67352 -s 0 -d 8 -p tcp -e 1040 -c 0 -i 9 -a 0 -x {0.0 13.0 6 ------- null}
+ -t 0.67352 -s 8 -d 10 -p tcp -e 1040 -c 0 -i 9 -a 0 -x {0.0 13.0 6 ------- null}
- -t 0.67352 -s 8 -d 10 -p tcp -e 1040 -c 0 -i 9 -a 0 -x {0.0 13.0 6 ------- null}
h -t 0.67352 -s 8 -d 10 -p tcp -e 1040 -c 0 -i 9 -a 0 -x {0.0 13.0 -1 ------- null}
r -t 0.682688 -s 8 -d 10 -p tcp -e 1040 -c 0 -i 6 -a 0 -x {0.0 13.0 3 ------- null}
+ -t 0.682688 -s 10 -d 11 -p tcp -e 1040 -c 0 -i 6 -a 0 -x {0.0 13.0 3 ------- null}
- -t 0.682688 -s 10 -d 11 -p tcp -e 1040 -c 0 -i 6 -a 0 -x {0.0 13.0 3 ------- null}
h -t 0.682688 -s 10 -d 11 -p tcp -e 1040 -c 0 -i 6 -a 0 -x {0.0 13.0 -1 ------- null}
r -t 0.683104 -s 8 -d 10 -p tcp -e 1040 -c 0 -i 7 -a 0 -x {0.0 13.0 4 ------- null}
+ -t 0.683104 -s 10 -d 11 -p tcp -e 1040 -c 0 -i 7 -a 0 -x {0.0 13.0 4 ------- null}
- -t 0.683104 -s 10 -d 11 -p tcp -e 1040 -c 0 -i 7 -a 0 -x {0.0 13.0 4 ------- null}
h -t 0.683104 -s 10 -d 11 -p tcp -e 1040 -c 0 -i 7 -a 0 -x {0.0 13.0 -1 ------- null}
r -t 0.68352 -s 8 -d 10 -p tcp -e 1040 -c 0 -i 8 -a 0 -x {0.0 13.0 5 ------- null}
+ -t 0.68352 -s 10 -d 11 -p tcp -e 1040 -c 0 -i 8 -a 0 -x {0.0 13.0 5 ------- null}
- -t 0.68352 -s 10 -d 11 -p tcp -e 1040 -c 0 -i 8 -a 0 -x {0.0 13.0 5 ------- null}
h -t 0.68352 -s 10 -d 11 -p tcp -e 1040 -c 0 -i 8 -a 0 -x {0.0 13.0 -1 ------- null}
r -t 0.683936 -s 8 -d 10 -p tcp -e 1040 -c 0 -i 9 -a 0 -x {0.0 13.0 6 ------- null}
+ -t 0.683936 -s 10 -d 11 -p tcp -e 1040 -c 0 -i 9 -a 0 -x {0.0 13.0 6 ------- null}
- -t 0.683936 -s 10 -d 11 -p tcp -e 1040 -c 0 -i 9 -a 0 -x {0.0 13.0 6 ------- null}
h -t 0.683936 -s 10 -d 11 -p tcp -e 1040 -c 0 -i 9 -a 0 -x {0.0 13.0 -1 ------- null}
r -t 0.693104 -s 10 -d 11 -p tcp -e 1040 -c 0 -i 6 -a 0 -x {0.0 13.0 3 ------- null}
+ -t 0.693104 -s 11 -d 13 -p tcp -e 1040 -c 0 -i 6 -a 0 -x {0.0 13.0 3 ------- null}
- -t 0.693104 -s 11 -d 13 -p tcp -e 1040 -c 0 -i 6 -a 0 -x {0.0 13.0 3 ------- null}
h -t 0.693104 -s 11 -d 13 -p tcp -e 1040 -c 0 -i 6 -a 0 -x {0.0 13.0 -1 ------- null}
r -t 0.69352 -s 10 -d 11 -p tcp -e 1040 -c 0 -i 7 -a 0 -x {0.0 13.0 4 ------- null}
+ -t 0.69352 -s 11 -d 13 -p tcp -e 1040 -c 0 -i 7 -a 0 -x {0.0 13.0 4 ------- null}
- -t 0.69352 -s 11 -d 13 -p tcp -e 1040 -c 0 -i 7 -a 0 -x {0.0 13.0 4 ------- null}
h -t 0.69352 -s 11 -d 13 -p tcp -e 1040 -c 0 -i 7 -a 0 -x {0.0 13.0 -1 ------- null}
r -t 0.693936 -s 10 -d 11 -p tcp -e 1040 -c 0 -i 8 -a 0 -x {0.0 13.0 5 ------- null}
+ -t 0.693936 -s 11 -d 13 -p tcp -e 1040 -c 0 -i 8 -a 0 -x {0.0 13.0 5 ------- null}
- -t 0.693936 -s 11 -d 13 -p tcp -e 1040 -c 0 -i 8 -a 0 -x {0.0 13.0 5 ------- null}
h -t 0.693936 -s 11 -d 13 -p tcp -e 1040 -c 0 -i 8 -a 0 -x {0.0 13.0 -1 ------- null}
r -t 0.694352 -s 10 -d 11 -p tcp -e 1040 -c 0 -i 9 -a 0 -x {0.0 13.0 6 ------- null}
+ -t 0.694352 -s 11 -d 13 -p tcp -e 1040 -c 0 -i 9 -a 0 -x {0.0 13.0 6 ------- null}
- -t 0.694352 -s 11 -d 13 -p tcp -e 1040 -c 0 -i 9 -a 0 -x {0.0 13.0 6 ------- null}
h -t 0.694352 -s 11 -d 13 -p tcp -e 1040 -c 0 -i 9 -a 0 -x {0.0 13.0 -1 ------- null}
r -t 0.70352 -s 11 -d 13 -p tcp -e 1040 -c 0 -i 6 -a 0 -x {0.0 13.0 3 ------- null}
+ -t 0.70352 -s 13 -d 11 -p ack -e 40 -c 0 -i 10 -a 0 -x {13.0 0.0 3 ------- null}
- -t 0.70352 -s 13 -d 11 -p ack -e 40 -c 0 -i 10 -a 0 -x {13.0 0.0 3 ------- null}
h -t 0.70352 -s 13 -d 11 -p ack -e 40 -c 0 -i 10 -a 0 -x {13.0 0.0 -1 ------- null}
r -t 0.703936 -s 11 -d 13 -p tcp -e 1040 -c 0 -i 7 -a 0 -x {0.0 13.0 4 ------- null}
+ -t 0.703936 -s 13 -d 11 -p ack -e 40 -c 0 -i 11 -a 0 -x {13.0 0.0 4 ------- null}
- -t 0.703936 -s 13 -d 11 -p ack -e 40 -c 0 -i 11 -a 0 -x {13.0 0.0 4 ------- null}
h -t 0.703936 -s 13 -d 11 -p ack -e 40 -c 0 -i 11 -a 0 -x {13.0 0.0 -1 ------- null}
r -t 0.704352 -s 11 -d 13 -p tcp -e 1040 -c 0 -i 8 -a 0 -x {0.0 13.0 5 ------- null}
+ -t 0.704352 -s 13 -d 11 -p ack -e 40 -c 0 -i 12 -a 0 -x {13.0 0.0 5 ------- null}
- -t 0.704352 -s 13 -d 11 -p ack -e 40 -c 0 -i 12 -a 0 -x {13.0 0.0 5 ------- null}
h -t 0.704352 -s 13 -d 11 -p ack -e 40 -c 0 -i 12 -a 0 -x {13.0 0.0 -1 ------- null}
r -t 0.704768 -s 11 -d 13 -p tcp -e 1040 -c 0 -i 9 -a 0 -x {0.0 13.0 6 ------- null}
+ -t 0.704768 -s 13 -d 11 -p ack -e 40 -c 0 -i 13 -a 0 -x {13.0 0.0 6 ------- null}
- -t 0.704768 -s 13 -d 11 -p ack -e 40 -c 0 -i 13 -a 0 -x {13.0 0.0 6 ------- null}
h -t 0.704768 -s 13 -d 11 -p ack -e 40 -c 0 -i 13 -a 0 -x {13.0 0.0 -1 ------- null}
r -t 0.713536 -s 13 -d 11 -p ack -e 40 -c 0 -i 10 -a 0 -x {13.0 0.0 3 ------- null}
+ -t 0.713536 -s 11 -d 10 -p ack -e 40 -c 0 -i 10 -a 0 -x {13.0 0.0 3 ------- null}
- -t 0.713536 -s 11 -d 10 -p ack -e 40 -c 0 -i 10 -a 0 -x {13.0 0.0 3 ------- null}
h -t 0.713536 -s 11 -d 10 -p ack -e 40 -c 0 -i 10 -a 0 -x {13.0 0.0 -1 ------- null}
r -t 0.713952 -s 13 -d 11 -p ack -e 40 -c 0 -i 11 -a 0 -x {13.0 0.0 4 ------- null}
+ -t 0.713952 -s 11 -d 10 -p ack -e 40 -c 0 -i 11 -a 0 -x {13.0 0.0 4 ------- null}
- -t 0.713952 -s 11 -d 10 -p ack -e 40 -c 0 -i 11 -a 0 -x {13.0 0.0 4 ------- null}
h -t 0.713952 -s 11 -d 10 -p ack -e 40 -c 0 -i 11 -a 0 -x {13.0 0.0 -1 ------- null}
r -t 0.714368 -s 13 -d 11 -p ack -e 40 -c 0 -i 12 -a 0 -x {13.0 0.0 5 ------- null}
+ -t 0.714368 -s 11 -d 10 -p ack -e 40 -c 0 -i 12 -a 0 -x {13.0 0.0 5 ------- null}
- -t 0.714368 -s 11 -d 10 -p ack -e 40 -c 0 -i 12 -a 0 -x {13.0 0.0 5 ------- null}
h -t 0.714368 -s 11 -d 10 -p ack -e 40 -c 0 -i 12 -a 0 -x {13.0 0.0 -1 ------- null}
r -t 0.714784 -s 13 -d 11 -p ack -e 40 -c 0 -i 13 -a 0 -x {13.0 0.0 6 ------- null}
+ -t 0.714784 -s 11 -d 10 -p ack -e 40 -c 0 -i 13 -a 0 -x {13.0 0.0 6 ------- null}
- -t 0.714784 -s 11 -d 10 -p ack -e 40 -c 0 -i 13 -a 0 -x {13.0 0.0 6 ------- null}
h -t 0.714784 -s 11 -d 10 -p ack -e 40 -c 0 -i 13 -a 0 -x {13.0 0.0 -1 ------- null}
r -t 0.723552 -s 11 -d 10 -p ack -e 40 -c 0 -i 10 -a 0 -x {13.0 0.0 3 ------- null}
+ -t 0.723552 -s 10 -d 8 -p ack -e 40 -c 0 -i 10 -a 0 -x {13.0 0.0 3 ------- null}
- -t 0.723552 -s 10 -d 8 -p ack -e 40 -c 0 -i 10 -a 0 -x {13.0 0.0 3 ------- null}
h -t 0.723552 -s 10 -d 8 -p ack -e 40 -c 0 -i 10 -a 0 -x {13.0 0.0 -1 ------- null}
r -t 0.723968 -s 11 -d 10 -p ack -e 40 -c 0 -i 11 -a 0 -x {13.0 0.0 4 ------- null}
+ -t 0.723968 -s 10 -d 8 -p ack -e 40 -c 0 -i 11 -a 0 -x {13.0 0.0 4 ------- null}
- -t 0.723968 -s 10 -d 8 -p ack -e 40 -c 0 -i 11 -a 0 -x {13.0 0.0 4 ------- null}
h -t 0.723968 -s 10 -d 8 -p ack -e 40 -c 0 -i 11 -a 0 -x {13.0 0.0 -1 ------- null}
r -t 0.724384 -s 11 -d 10 -p ack -e 40 -c 0 -i 12 -a 0 -x {13.0 0.0 5 ------- null}
+ -t 0.724384 -s 10 -d 8 -p ack -e 40 -c 0 -i 12 -a 0 -x {13.0 0.0 5 ------- null}
- -t 0.724384 -s 10 -d 8 -p ack -e 40 -c 0 -i 12 -a 0 -x {13.0 0.0 5 ------- null}
h -t 0.724384 -s 10 -d 8 -p ack -e 40 -c 0 -i 12 -a 0 -x {13.0 0.0 -1 ------- null}
r -t 0.7248 -s 11 -d 10 -p ack -e 40 -c 0 -i 13 -a 0 -x {13.0 0.0 6 ------- null}
+ -t 0.7248 -s 10 -d 8 -p ack -e 40 -c 0 -i 13 -a 0 -x {13.0 0.0 6 ------- null}
- -t 0.7248 -s 10 -d 8 -p ack -e 40 -c 0 -i 13 -a 0 -x {13.0 0.0 6 ------- null}
h -t 0.7248 -s 10 -d 8 -p ack -e 40 -c 0 -i 13 -a 0 -x {13.0 0.0 -1 ------- null}
r -t 0.733568 -s 10 -d 8 -p ack -e 40 -c 0 -i 10 -a 0 -x {13.0 0.0 3 ------- null}
+ -t 0.733568 -s 8 -d 0 -p ack -e 40 -c 0 -i 10 -a 0 -x {13.0 0.0 3 ------- null}
- -t 0.733568 -s 8 -d 0 -p ack -e 40 -c 0 -i 10 -a 0 -x {13.0 0.0 3 ------- null}
h -t 0.733568 -s 8 -d 0 -p ack -e 40 -c 0 -i 10 -a 0 -x {13.0 0.0 -1 ------- null}
r -t 0.733984 -s 10 -d 8 -p ack -e 40 -c 0 -i 11 -a 0 -x {13.0 0.0 4 ------- null}
+ -t 0.733984 -s 8 -d 0 -p ack -e 40 -c 0 -i 11 -a 0 -x {13.0 0.0 4 ------- null}
- -t 0.733984 -s 8 -d 0 -p ack -e 40 -c 0 -i 11 -a 0 -x {13.0 0.0 4 ------- null}
h -t 0.733984 -s 8 -d 0 -p ack -e 40 -c 0 -i 11 -a 0 -x {13.0 0.0 -1 ------- null}
r -t 0.7344 -s 10 -d 8 -p ack -e 40 -c 0 -i 12 -a 0 -x {13.0 0.0 5 ------- null}
+ -t 0.7344 -s 8 -d 0 -p ack -e 40 -c 0 -i 12 -a 0 -x {13.0 0.0 5 ------- null}
- -t 0.7344 -s 8 -d 0 -p ack -e 40 -c 0 -i 12 -a 0 -x {13.0 0.0 5 ------- null}
h -t 0.7344 -s 8 -d 0 -p ack -e 40 -c 0 -i 12 -a 0 -x {13.0 0.0 -1 ------- null}
r -t 0.734816 -s 10 -d 8 -p ack -e 40 -c 0 -i 13 -a 0 -x {13.0 0.0 6 ------- null}
+ -t 0.734816 -s 8 -d 0 -p ack -e 40 -c 0 -i 13 -a 0 -x {13.0 0.0 6 ------- null}
- -t 0.734816 -s 8 -d 0 -p ack -e 40 -c 0 -i 13 -a 0 -x {13.0 0.0 6 ------- null}
h -t 0.734816 -s 8 -d 0 -p ack -e 40 -c 0 -i 13 -a 0 -x {13.0 0.0 -1 ------- null}
r -t 0.743584 -s 8 -d 0 -p ack -e 40 -c 0 -i 10 -a 0 -x {13.0 0.0 3 ------- null}
+ -t 0.743584 -s 0 -d 8 -p tcp -e 1040 -c 0 -i 14 -a 0 -x {0.0 13.0 7 ------- null}
- -t 0.743584 -s 0 -d 8 -p tcp -e 1040 -c 0 -i 14 -a 0 -x {0.0 13.0 7 ------- null}
h -t 0.743584 -s 0 -d 8 -p tcp -e 1040 -c 0 -i 14 -a 0 -x {0.0 13.0 -1 ------- null}
+ -t 0.743584 -s 0 -d 8 -p tcp -e 1040 -c 0 -i 15 -a 0 -x {0.0 13.0 8 ------- null}
r -t 0.744 -s 8 -d 0 -p ack -e 40 -c 0 -i 11 -a 0 -x {13.0 0.0 4 ------- null}
+ -t 0.744 -s 0 -d 8 -p tcp -e 1040 -c 0 -i 16 -a 0 -x {0.0 13.0 9 ------- null}
+ -t 0.744 -s 0 -d 8 -p tcp -e 1040 -c 0 -i 17 -a 0 -x {0.0 13.0 10 ------- null}
- -t 0.744 -s 0 -d 8 -p tcp -e 1040 -c 0 -i 15 -a 0 -x {0.0 13.0 8 ------- null}
h -t 0.744 -s 0 -d 8 -p tcp -e 1040 -c 0 -i 15 -a 0 -x {0.0 13.0 -1 ------- null}
r -t 0.744416 -s 8 -d 0 -p ack -e 40 -c 0 -i 12 -a 0 -x {13.0 0.0 5 ------- null}
+ -t 0.744416 -s 0 -d 8 -p tcp -e 1040 -c 0 -i 18 -a 0 -x {0.0 13.0 11 ------- null}
+ -t 0.744416 -s 0 -d 8 -p tcp -e 1040 -c 0 -i 19 -a 0 -x {0.0 13.0 12 ------- null}
- -t 0.744416 -s 0 -d 8 -p tcp -e 1040 -c 0 -i 16 -a 0 -x {0.0 13.0 9 ------- null}
h -t 0.744416 -s 0 -d 8 -p tcp -e 1040 -c 0 -i 16 -a 0 -x {0.0 13.0 -1 ------- null}
r -t 0.744832 -s 8 -d 0 -p ack -e 40 -c 0 -i 13 -a 0 -x {13.0 0.0 6 ------- null}
+ -t 0.744832 -s 0 -d 8 -p tcp -e 1040 -c 0 -i 20 -a 0 -x {0.0 13.0 13 ------- null}
+ -t 0.744832 -s 0 -d 8 -p tcp -e 1040 -c 0 -i 21 -a 0 -x {0.0 13.0 14 ------- null}
- -t 0.744832 -s 0 -d 8 -p tcp -e 1040 -c 0 -i 17 -a 0 -x {0.0 13.0 10 ------- null}
h -t 0.744832 -s 0 -d 8 -p tcp -e 1040 -c 0 -i 17 -a 0 -x {0.0 13.0 -1 ------- null}
- -t 0.745248 -s 0 -d 8 -p tcp -e 1040 -c 0 -i 18 -a 0 -x {0.0 13.0 11 ------- null}
h -t 0.745248 -s 0 -d 8 -p tcp -e 1040 -c 0 -i 18 -a 0 -x {0.0 13.0 -1 ------- null}
- -t 0.745664 -s 0 -d 8 -p tcp -e 1040 -c 0 -i 19 -a 0 -x {0.0 13.0 12 ------- null}
h -t 0.745664 -s 0 -d 8 -p tcp -e 1040 -c 0 -i 19 -a 0 -x {0.0 13.0 -1 ------- null}
- -t 0.74608 -s 0 -d 8 -p tcp -e 1040 -c 0 -i 20 -a 0 -x {0.0 13.0 13 ------- null}
h -t 0.74608 -s 0 -d 8 -p tcp -e 1040 -c 0 -i 20 -a 0 -x {0.0 13.0 -1 ------- null}
- -t 0.746496 -s 0 -d 8 -p tcp -e 1040 -c 0 -i 21 -a 0 -x {0.0 13.0 14 ------- null}
h -t 0.746496 -s 0 -d 8 -p tcp -e 1040 -c 0 -i 21 -a 0 -x {0.0 13.0 -1 ------- null}
r -t 0.754 -s 0 -d 8 -p tcp -e 1040 -c 0 -i 14 -a 0 -x {0.0 13.0 7 ------- null}
+ -t 0.754 -s 8 -d 10 -p tcp -e 1040 -c 0 -i 14 -a 0 -x {0.0 13.0 7 ------- null}
- -t 0.754 -s 8 -d 10 -p tcp -e 1040 -c 0 -i 14 -a 0 -x {0.0 13.0 7 ------- null}
h -t 0.754 -s 8 -d 10 -p tcp -e 1040 -c 0 -i 14 -a 0 -x {0.0 13.0 -1 ------- null}
r -t 0.754416 -s 0 -d 8 -p tcp -e 1040 -c 0 -i 15 -a 0 -x {0.0 13.0 8 ------- null}
+ -t 0.754416 -s 8 -d 10 -p tcp -e 1040 -c 0 -i 15 -a 0 -x {0.0 13.0 8 ------- null}
- -t 0.754416 -s 8 -d 10 -p tcp -e 1040 -c 0 -i 15 -a 0 -x {0.0 13.0 8 ------- null}
h -t 0.754416 -s 8 -d 10 -p tcp -e 1040 -c 0 -i 15 -a 0 -x {0.0 13.0 -1 ------- null}
r -t 0.754832 -s 0 -d 8 -p tcp -e 1040 -c 0 -i 16 -a 0 -x {0.0 13.0 9 ------- null}
+ -t 0.754832 -s 8 -d 10 -p tcp -e 1040 -c 0 -i 16 -a 0 -x {0.0 13.0 9 ------- null}
- -t 0.754832 -s 8 -d 10 -p tcp -e 1040 -c 0 -i 16 -a 0 -x {0.0 13.0 9 ------- null}
h -t 0.754832 -s 8 -d 10 -p tcp -e 1040 -c 0 -i 16 -a 0 -x {0.0 13.0 -1 ------- null}
r -t 0.755248 -s 0 -d 8 -p tcp -e 1040 -c 0 -i 17 -a 0 -x {0.0 13.0 10 ------- null}
+ -t 0.755248 -s 8 -d 10 -p tcp -e 1040 -c 0 -i 17 -a 0 -x {0.0 13.0 10 ------- null}
- -t 0.755248 -s 8 -d 10 -p tcp -e 1040 -c 0 -i 17 -a 0 -x {0.0 13.0 10 ------- null}
h -t 0.755248 -s 8 -d 10 -p tcp -e 1040 -c 0 -i 17 -a 0 -x {0.0 13.0 -1 ------- null}
r -t 0.755664 -s 0 -d 8 -p tcp -e 1040 -c 0 -i 18 -a 0 -x {0.0 13.0 11 ------- null}
+ -t 0.755664 -s 8 -d 10 -p tcp -e 1040 -c 0 -i 18 -a 0 -x {0.0 13.0 11 ------- null}
- -t 0.755664 -s 8 -d 10 -p tcp -e 1040 -c 0 -i 18 -a 0 -x {0.0 13.0 11 ------- null}
h -t 0.755664 -s 8 -d 10 -p tcp -e 1040 -c 0 -i 18 -a 0 -x {0.0 13.0 -1 ------- null}
r -t 0.75608 -s 0 -d 8 -p tcp -e 1040 -c 0 -i 19 -a 0 -x {0.0 13.0 12 ------- null}
+ -t 0.75608 -s 8 -d 10 -p tcp -e 1040 -c 0 -i 19 -a 0 -x {0.0 13.0 12 ------- null}
- -t 0.75608 -s 8 -d 10 -p tcp -e 1040 -c 0 -i 19 -a 0 -x {0.0 13.0 12 ------- null}
h -t 0.75608 -s 8 -d 10 -p tcp -e 1040 -c 0 -i 19 -a 0 -x {0.0 13.0 -1 ------- null}
r -t 0.756496 -s 0 -d 8 -p tcp -e 1040 -c 0 -i 20 -a 0 -x {0.0 13.0 13 ------- null}
+ -t 0.756496 -s 8 -d 10 -p tcp -e 1040 -c 0 -i 20 -a 0 -x {0.0 13.0 13 ------- null}
- -t 0.756496 -s 8 -d 10 -p tcp -e 1040 -c 0 -i 20 -a 0 -x {0.0 13.0 13 ------- null}
h -t 0.756496 -s 8 -d 10 -p tcp -e 1040 -c 0 -i 20 -a 0 -x {0.0 13.0 -1 ------- null}
r -t 0.756912 -s 0 -d 8 -p tcp -e 1040 -c 0 -i 21 -a 0 -x {0.0 13.0 14 ------- null}
+ -t 0.756912 -s 8 -d 10 -p tcp -e 1040 -c 0 -i 21 -a 0 -x {0.0 13.0 14 ------- null}
- -t 0.756912 -s 8 -d 10 -p tcp -e 1040 -c 0 -i 21 -a 0 -x {0.0 13.0 14 ------- null}
h -t 0.756912 -s 8 -d 10 -p tcp -e 1040 -c 0 -i 21 -a 0 -x {0.0 13.0 -1 ------- null}
r -t 0.764416 -s 8 -d 10 -p tcp -e 1040 -c 0 -i 14 -a 0 -x {0.0 13.0 7 ------- null}
+ -t 0.764416 -s 10 -d 11 -p tcp -e 1040 -c 0 -i 14 -a 0 -x {0.0 13.0 7 ------- null}
- -t 0.764416 -s 10 -d 11 -p tcp -e 1040 -c 0 -i 14 -a 0 -x {0.0 13.0 7 ------- null}
h -t 0.764416 -s 10 -d 11 -p tcp -e 1040 -c 0 -i 14 -a 0 -x {0.0 13.0 -1 ------- null}
r -t 0.764832 -s 8 -d 10 -p tcp -e 1040 -c 0 -i 15 -a 0 -x {0.0 13.0 8 ------- null}
+ -t 0.764832 -s 10 -d 11 -p tcp -e 1040 -c 0 -i 15 -a 0 -x {0.0 13.0 8 ------- null}
- -t 0.764832 -s 10 -d 11 -p tcp -e 1040 -c 0 -i 15 -a 0 -x {0.0 13.0 8 ------- null}
h -t 0.764832 -s 10 -d 11 -p tcp -e 1040 -c 0 -i 15 -a 0 -x {0.0 13.0 -1 ------- null}
r -t 0.765248 -s 8 -d 10 -p tcp -e 1040 -c 0 -i 16 -a 0 -x {0.0 13.0 9 ------- null}
+ -t 0.765248 -s 10 -d 11 -p tcp -e 1040 -c 0 -i 16 -a 0 -x {0.0 13.0 9 ------- null}
- -t 0.765248 -s 10 -d 11 -p tcp -e 1040 -c 0 -i 16 -a 0 -x {0.0 13.0 9 ------- null}
h -t 0.765248 -s 10 -d 11 -p tcp -e 1040 -c 0 -i 16 -a 0 -x {0.0 13.0 -1 ------- null}
r -t 0.765664 -s 8 -d 10 -p tcp -e 1040 -c 0 -i 17 -a 0 -x {0.0 13.0 10 ------- null}
+ -t 0.765664 -s 10 -d 11 -p tcp -e 1040 -c 0 -i 17 -a 0 -x {0.0 13.0 10 ------- null}
- -t 0.765664 -s 10 -d 11 -p tcp -e 1040 -c 0 -i 17 -a 0 -x {0.0 13.0 10 ------- null}
h -t 0.765664 -s 10 -d 11 -p tcp -e 1040 -c 0 -i 17 -a 0 -x {0.0 13.0 -1 ------- null}
r -t 0.76608 -s 8 -d 10 -p tcp -e 1040 -c 0 -i 18 -a 0 -x {0.0 13.0 11 ------- null}
+ -t 0.76608 -s 10 -d 11 -p tcp -e 1040 -c 0 -i 18 -a 0 -x {0.0 13.0 11 ------- null}
- -t 0.76608 -s 10 -d 11 -p tcp -e 1040 -c 0 -i 18 -a 0 -x {0.0 13.0 11 ------- null}
h -t 0.76608 -s 10 -d 11 -p tcp -e 1040 -c 0 -i 18 -a 0 -x {0.0 13.0 -1 ------- null}
r -t 0.766496 -s 8 -d 10 -p tcp -e 1040 -c 0 -i 19 -a 0 -x {0.0 13.0 12 ------- null}
+ -t 0.766496 -s 10 -d 11 -p tcp -e 1040 -c 0 -i 19 -a 0 -x {0.0 13.0 12 ------- null}
- -t 0.766496 -s 10 -d 11 -p tcp -e 1040 -c 0 -i 19 -a 0 -x {0.0 13.0 12 ------- null}
h -t 0.766496 -s 10 -d 11 -p tcp -e 1040 -c 0 -i 19 -a 0 -x {0.0 13.0 -1 ------- null}
r -t 0.766912 -s 8 -d 10 -p tcp -e 1040 -c 0 -i 20 -a 0 -x {0.0 13.0 13 ------- null}
+ -t 0.766912 -s 10 -d 11 -p tcp -e 1040 -c 0 -i 20 -a 0 -x {0.0 13.0 13 ------- null}
- -t 0.766912 -s 10 -d 11 -p tcp -e 1040 -c 0 -i 20 -a 0 -x {0.0 13.0 13 ------- null}
h -t 0.766912 -s 10 -d 11 -p tcp -e 1040 -c 0 -i 20 -a 0 -x {0.0 13.0 -1 ------- null}
r -t 0.767328 -s 8 -d 10 -p tcp -e 1040 -c 0 -i 21 -a 0 -x {0.0 13.0 14 ------- null}
+ -t 0.767328 -s 10 -d 11 -p tcp -e 1040 -c 0 -i 21 -a 0 -x {0.0 13.0 14 ------- null}
- -t 0.767328 -s 10 -d 11 -p tcp -e 1040 -c 0 -i 21 -a 0 -x {0.0 13.0 14 ------- null}
h -t 0.767328 -s 10 -d 11 -p tcp -e 1040 -c 0 -i 21 -a 0 -x {0.0 13.0 -1 ------- null}
r -t 0.774832 -s 10 -d 11 -p tcp -e 1040 -c 0 -i 14 -a 0 -x {0.0 13.0 7 ------- null}
+ -t 0.774832 -s 11 -d 13 -p tcp -e 1040 -c 0 -i 14 -a 0 -x {0.0 13.0 7 ------- null}
- -t 0.774832 -s 11 -d 13 -p tcp -e 1040 -c 0 -i 14 -a 0 -x {0.0 13.0 7 ------- null}
h -t 0.774832 -s 11 -d 13 -p tcp -e 1040 -c 0 -i 14 -a 0 -x {0.0 13.0 -1 ------- null}
r -t 0.775248 -s 10 -d 11 -p tcp -e 1040 -c 0 -i 15 -a 0 -x {0.0 13.0 8 ------- null}
+ -t 0.775248 -s 11 -d 13 -p tcp -e 1040 -c 0 -i 15 -a 0 -x {0.0 13.0 8 ------- null}
- -t 0.775248 -s 11 -d 13 -p tcp -e 1040 -c 0 -i 15 -a 0 -x {0.0 13.0 8 ------- null}
h -t 0.775248 -s 11 -d 13 -p tcp -e 1040 -c 0 -i 15 -a 0 -x {0.0 13.0 -1 ------- null}
r -t 0.775664 -s 10 -d 11 -p tcp -e 1040 -c 0 -i 16 -a 0 -x {0.0 13.0 9 ------- null}
+ -t 0.775664 -s 11 -d 13 -p tcp -e 1040 -c 0 -i 16 -a 0 -x {0.0 13.0 9 ------- null}
- -t 0.775664 -s 11 -d 13 -p tcp -e 1040 -c 0 -i 16 -a 0 -x {0.0 13.0 9 ------- null}
h -t 0.775664 -s 11 -d 13 -p tcp -e 1040 -c 0 -i 16 -a 0 -x {0.0 13.0 -1 ------- null}
r -t 0.77608 -s 10 -d 11 -p tcp -e 1040 -c 0 -i 17 -a 0 -x {0.0 13.0 10 ------- null}
+ -t 0.77608 -s 11 -d 13 -p tcp -e 1040 -c 0 -i 17 -a 0 -x {0.0 13.0 10 ------- null}
- -t 0.77608 -s 11 -d 13 -p tcp -e 1040 -c 0 -i 17 -a 0 -x {0.0 13.0 10 ------- null}
h -t 0.77608 -s 11 -d 13 -p tcp -e 1040 -c 0 -i 17 -a 0 -x {0.0 13.0 -1 ------- null}
r -t 0.776496 -s 10 -d 11 -p tcp -e 1040 -c 0 -i 18 -a 0 -x {0.0 13.0 11 ------- null}
+ -t 0.776496 -s 11 -d 13 -p tcp -e 1040 -c 0 -i 18 -a 0 -x {0.0 13.0 11 ------- null}
- -t 0.776496 -s 11 -d 13 -p tcp -e 1040 -c 0 -i 18 -a 0 -x {0.0 13.0 11 ------- null}
h -t 0.776496 -s 11 -d 13 -p tcp -e 1040 -c 0 -i 18 -a 0 -x {0.0 13.0 -1 ------- null}
r -t 0.776912 -s 10 -d 11 -p tcp -e 1040 -c 0 -i 19 -a 0 -x {0.0 13.0 12 ------- null}
+ -t 0.776912 -s 11 -d 13 -p tcp -e 1040 -c 0 -i 19 -a 0 -x {0.0 13.0 12 ------- null}
- -t 0.776912 -s 11 -d 13 -p tcp -e 1040 -c 0 -i 19 -a 0 -x {0.0 13.0 12 ------- null}
h -t 0.776912 -s 11 -d 13 -p tcp -e 1040 -c 0 -i 19 -a 0 -x {0.0 13.0 -1 ------- null}
r -t 0.777328 -s 10 -d 11 -p tcp -e 1040 -c 0 -i 20 -a 0 -x {0.0 13.0 13 ------- null}
+ -t 0.777328 -s 11 -d 13 -p tcp -e 1040 -c 0 -i 20 -a 0 -x {0.0 13.0 13 ------- null}